<?xml version="1.0"?>
<VTKFile type="UnstructuredGrid" version="2.3" byte_order="LittleEndian" header_type="UInt32" compressor="vtkZLibDataCompressor">
  <UnstructuredGrid>
    <Piece NumberOfPoints="81" NumberOfCells="12">
      <PointData Scalars="sort_id">
        <DataArray type="Int64" Name="point_field_a" NumberOfComponents="4" format="ascii" RangeMin="0" RangeMax="211.0118480085893">
          0 1 2 3 4 5
          6 7 8 9 10 11
          12 13 14 15 16 17
          18 19 20 21 22 23
          24 25 26 27 28 29
          30 31 32 33 34 35
          36 37 38 39 40 41
          42 43 44 45 46 47
          48 49 50 51 52 53
          54 55 56 57 58 59
          60 61 62 63 64 65
          66 67 68 69 70 71
          72 73 74 75 76 77
          78 79 80 81 82 83
          84 85 86 87 88 89
          90 91 92 93 94 95
          96 97 98 99 100 101
          102 103 104 105 106 107
          0 0 0 0 0 0
          0 0 0 0 0 0
          0 0 0 0 0 0
          0 0 0 0 0 0
          0 0 0 0 0 0
          0 0 0 0 0 0
          0 0 0 0 0 0
          0 0 0 0 0 0
          0 0 0 0 0 0
          0 0 0 0 0 0
          0 0 0 0 0 0
          0 0 0 0 0 0
          0 0 0 0 0 0
          0 0 0 0 0 0
          0 0 0 0 0 0
          0 0 0 0 0 0
          0 0 0 0 0 0
          0 0 0 0 0 0
          0 0 0 0 0 0
          0 0 0 0 0 0
          0 0 0 0 0 0
          0 0 0 0 0 0
          0 0 0 0 0 0
          0 0 0 0 0 0
          0 0 0 0 0 0
          0 0 0 0 0 0
          0 0 0 0 0 0
          0 0 0 0 0 0
          0 0 0 0 0 0
          0 0 0 0 0 0
          0 0 0 0 0 0
          0 0 0 0 0 0
          0 0 0 0 0 0
          0 0 0 0 0 0
          0 0 0 0 0 0
          0 0 0 0 0 0
          <InformationKey name="L2_NORM_RANGE" location="vtkDataArray" length="2">
            <Value index="0">
              0
            </Value>
            <Value index="1">
              211.01184801
            </Value>
          </InformationKey>
        </DataArray>
        <DataArray type="Int64" Name="point_field_c" format="ascii" RangeMin="0" RangeMax="26">
          0 0 0 0 0 0
          0 0 0 0 0 0
          0 0 0 0 0 0
          0 0 0 0 0 0
          0 0 0 0 0 0
          0 0 0 0 0 0
          0 0 0 0 0 0
          0 0 0 0 0 0
          0 0 0 0 0 0
          0 1 2 3 4 5
          6 7 8 9 10 11
          12 13 14 15 16 17
          18 19 20 21 22 23
          24 25 26
        </DataArray>
        <DataArray type="Int64" Name="point_id" format="ascii" RangeMin="0" RangeMax="26">
          0 1 2 3 4 5
          6 7 8 9 10 11
          12 13 14 15 16 17
          18 19 20 21 22 23
          24 25 26 0 1 2
          3 4 5 6 7 8
          9 10 11 12 13 14
          15 16 17 18 19 20
          21 22 23 24 25 26
          0 1 2 3 4 5
          6 7 8 9 10 11
          12 13 14 15 16 17
          18 19 20 21 22 23
          24 25 26
        </DataArray>
        <DataArray type="Int64" Name="sort_id" format="ascii" RangeMin="0" RangeMax="26">
          26 25 24 23 22 21
          20 19 18 17 16 15
          14 13 12 11 10 9
          8 7 6 5 4 3
          2 1 0 26 25 24
          23 22 21 20 19 18
          17 16 15 14 13 12
          11 10 9 8 7 6
          5 4 3 2 1 0
          26 25 24 23 22 21
          20 19 18 17 16 15
          14 13 12 11 10 9
          8 7 6 5 4 3
          2 1 0
        </DataArray>
      </PointData>
      <CellData Scalars="cell_id">
        <DataArray type="Int64" Name="cell_field_b" NumberOfComponents="2" format="ascii" RangeMin="0" RangeMax="9.219544457292887">
          0 0 0 0 0 0
          0 0 0 1 2 3
          4 5 6 7 0 0
          0 0 0 0 0 0
          <InformationKey name="L2_NORM_RANGE" location="vtkDataArray" length="2">
            <Value index="0">
              0
            </Value>
            <Value index="1">
              9.2195444573
            </Value>
          </InformationKey>
        </DataArray>
        <DataArray type="Int64" Name="cell_id" format="ascii" RangeMin="0" RangeMax="3">
          0 1 2 3 0 1
          2 3 0 1 2 3
        </DataArray>
      </CellData>
      <Points>
        <DataArray type="Float64" Name="Points" NumberOfComponents="3" format="ascii" RangeMin="0" RangeMax="0.09027735042633894">
          0 0 0 0 0.01 0
          0.01 0.01 0 0.01 0 0
          0.02 0 0 0.02 0.01 0
          0.03 0.01 0 0.035 0.005 0
          0.03 0 0 0 0 0.02
          0 0.01 0.02 0.01 0.01 0.02
          0.01 0 0.02 0 0 0.03
          0 0.01 0.03 0.01 0.01 0.03
          0.01 0 0.03 0.02 0 0.02
          0.02 0.01 0.02 0.03 0.01 0.02
          0.035 0.005 0.02 0.03 0 0.02
          0.02 0 0.03 0.02 0.01 0.03
          0.03 0.01 0.03 0.035 0.005 0.03
          0.03 0 0.03 0 0 0
          0 0.01 0 0.01 0.01 0
          0.01 0 0 0.02 0 0
          0.02 0.01 0 0.03 0.01 0
          0.035 0.005 0 0.03 0 0
          0 0 0.02 0 0.01 0.02
          0.01 0.01 0.02 0.01 0 0.02
          0 0 0.03 0 0.01 0.03
          0.01 0.01 0.03 0.01 0 0.03
          0.02 0 0.02 0.02 0.01 0.02
          0.03 0.01 0.02 0.035 0.005 0.02
          0.03 0 0.02 0.02 0 0.03
          0.02 0.01 0.03 0.03 0.01 0.03
          0.035 0.005 0.03 0.03 0 0.03
          0.05 0 0 0.05 0.01 0
          0.060000000000000005 0.01 0 0.060000000000000005 0 0
          0.07 0 0 0.07 0.01 0
          0.08 0.01 0 0.085 0.005 0
          0.08 0 0 0.05 0 0.02
          0.05 0.01 0.02 0.060000000000000005 0.01 0.02
          0.060000000000000005 0 0.02 0.05 0 0.03
          0.05 0.01 0.03 0.060000000000000005 0.01 0.03
          0.060000000000000005 0 0.03 0.07 0 0.02
          0.07 0.01 0.02 0.08 0.01 0.02
          0.085 0.005 0.02 0.08 0 0.02
          0.07 0 0.03 0.07 0.01 0.03
          0.08 0.01 0.03 0.085 0.005 0.03
          0.08 0 0.03
          <InformationKey name="L2_NORM_RANGE" location="vtkDataArray" length="2">
            <Value index="0">
              0
            </Value>
            <Value index="1">
              0.090277350426
            </Value>
          </InformationKey>
        </DataArray>
      </Points>
      <Cells>
        <DataArray type="Int64" IdType="1" Name="connectivity" format="ascii" RangeMin="0" RangeMax="80">
          0 1 2 3 4 5
          6 7 8 9 10 11
          12 13 14 15 16 17
          18 19 20 21 22 23
          24 25 26 27 28 29
          30 31 32 33 34 35
          36 37 38 39 40 41
          42 43 44 45 46 47
          48 49 50 51 52 53
          54 55 56 57 58 59
          60 61 62 63 64 65
          66 67 68 69 70 71
          72 73 74 75 76 77
          78 79 80
        </DataArray>
        <DataArray type="Int64" Name="offsets" format="ascii" RangeMin="4" RangeMax="81">
          4 9 17 27 31 36
          44 54 58 63 71 81
        </DataArray>
        <DataArray type="UInt8" Name="types" format="ascii" RangeMin="7" RangeMax="42">
          9 7 12 42 9 7
          12 42 9 7 12 42
        </DataArray>
        <DataArray type="Int64" IdType="1" Name="face_connectivity" format="ascii" RangeMin="17" RangeMax="80">
          17 18 19 20 21 17
          18 23 22 17 21 26
          22 21 26 25 20 20
          25 24 19 19 24 23
          18 22 23 24 25 26
          44 45 46 47 48 44
          45 50 49 44 48 53
          49 48 53 52 47 47
          52 51 46 46 51 50
          45 49 50 51 52 53
          71 72 73 74 75 71
          72 77 76 71 75 80
          76 75 80 79 74 74
          79 78 73 73 78 77
          72 76 77 78 79 80
        </DataArray>
        <DataArray type="Int64" Name="face_offsets" format="ascii" RangeMin="5" RangeMax="90">
          5 9 13 17 21 25
          30 35 39 43 47 51
          55 60 65 69 73 77
          81 85 90
        </DataArray>
        <DataArray type="Int64" IdType="1" Name="polyhedron_to_faces" format="ascii" RangeMin="0" RangeMax="20">
          0 1 2 3 4 5
          6 7 8 9 10 11
          12 13 14 15 16 17
          18 19 20
        </DataArray>
        <DataArray type="Int64" Name="polyhedron_offsets" format="ascii" RangeMin="0" RangeMax="21">
          0 0 0 7 7 7
          7 14 14 14 14 21
        </DataArray>
      </Cells>
    </Piece>
  </UnstructuredGrid>
</VTKFile>
