<?xml version="1.0"?>
<VTKFile type="UnstructuredGrid" version="0.1" byte_order="LittleEndian" header_type="UInt32" compressor="vtkZLibDataCompressor">
  <UnstructuredGrid>
    <Piece NumberOfPoints="231" NumberOfCells="15">
      <PointData Scalars="displacement">
        <DataArray type="Float64" Name="displacement" NumberOfComponents="3" format="ascii" RangeMin="0" RangeMax="0.4686609761603424">
          0 0 0 0.001112877599888771 0.0005023326753195539 0.008343901589723026
          -0.0005132853920629653 -0.0002780577944592698 -0.008349947086165705 0 0 0
          0.0003638999995892976 -0.0001334899980509094 0.0020859753974307566 0.0003138789855527893 0.00011503221239372359 0.0008618572808016083
          -0.00031074203525782566 -0.00021783691742553117 -0.002087486771541426 0 0 0
          0.00004345789225413557 -0.00022882762697298755 0.00021546432020040206 0.0011479042224487026 0.006832055257790844 0.0464973330320375
          -0.002441314226152024 0.005016496012158504 0.012747919819277975 0.0015923924558560343 0.0025950028254779524 0.022054210245163162
          -0.0009038739086732382 0.006023484896644845 0.03130628908174814 -0.0010695146093746286 0.001054874228776253 -0.007250453902887633
          0.00020139210890673853 0.0019072471697247847 0.00890389387143905 -0.007556827473871396 0.021759966773925297 0.1343926882708225
          -0.016775686423743563 0.020676955853285616 0.11197269676513878 -0.0014815235906786347 0.013218654923519525 0.08337593676802946
          -0.012423570821766339 0.021221729269284145 0.12391010283875707 -0.006914699683805037 0.011569594304168087 0.05227802105154786
          -0.004584625930969982 0.012462170545661948 0.06924852978107283 -0.030217678960800867 0.042241885180604816 0.2681100818954002
          -0.047456178909089305 0.041775885370341895 0.26387031516739345 -0.017121161304716494 0.03168978034696733 0.19686494937006369
          -0.03873739227402819 0.04197154266521329 0.2656523515414809 -0.030723203235620635 0.03114393482138543 0.1848355828428281
          -0.02396104684735488 0.031369180248728805 0.19085628463286997 -0.06226000641767486 0.06383342864360775 0.42394915038977155
          -0.08306754897133607 0.06329132554764463 0.4270476773970222 -0.04565956560937137 0.05307139627832316 0.3448856331381851
          -0.07245796680226274 0.0635341720852237 0.4250838894232031 -0.06542187397678324 0.05251196358435997 0.3457249834488022
          -0.05536542596969467 0.05277710908771809 0.34487074074484136 -0.0019464950681920977 -0.0012851169862077567 -0.03105492798473419
          0 0 0 -0.0012922114407230693 -0.0007278149818046792 -0.019064534508802963
          -0.0006410902605212391 -0.0000413500724144013 -0.007763731996183547 0 0 0
          -0.0005788685103738595 -0.00014163776678163692 -0.004766133627200741 -0.005205876157570262 0.002787860547039305 -0.029463813476332833
          -0.0037725904143351896 0.003906238072800449 -0.00792602946390502 -0.0035801213811594737 -0.0011893602701374068 -0.046184613350000944
          -0.002302596254294542 0.00002647481227473122 -0.02581217550197995 -0.02794893604768983 0.019733072064911972 0.09308379335591531
          -0.021616399694239313 0.0201669642203536 0.10091806271563555 -0.011702550634166397 0.009983139860372416 0.01749610947829695
          -0.009083442150948832 0.010692669606563171 0.03438651335783056 -0.0688441252626234 0.0412650856338514 0.26801200779032236
          -0.05721232714546185 0.04156902809391362 0.2641836436310399 -0.04873335379241675 0.03062970478221821 0.1817666291340733
          -0.03858738678035938 0.030926593265645733 0.18105498425740646 -0.10603430705300321 0.06257693265549473 0.43446563097825913
          -0.09421693502241091 0.06300540656101887 0.43009132201433803 -0.0880286448766916 0.05184542484866057 0.3521387386349538
          -0.07618943761699594 0.052220041570567796 0.34797282737164675 -0.0034453720216470586 -0.00342543631867292 -0.061213389693934125
          0 0 0 -0.0026171955149925843 -0.0021257340257900036 -0.044908691663323286
          -0.0001906866072039884 -0.00010614111174001473 -0.015303347423483531 0 0 0
          -0.000508124041023453 -0.0000013818491313515014 -0.011227172915830821 -0.007260227765950507 -0.0005363223319625196 -0.07965884498259873
          -0.00646160932004584 0.0013955961678075056 -0.05299742204142442 -0.0067924283667542265 -0.0051660939492599945 -0.09643144836306733
          -0.005033071561476882 -0.0028383201476017772 -0.06938522008951022 -0.04332825285903226 0.018410725500029677 0.08338815590118903
          -0.03533298919798939 0.01920456421534318 0.08754784048481934 -0.015791319502341354 0.008107932746655402 -0.017513127559017055
          -0.01414688859683736 0.009201421946701326 0.0005488742327475682 -0.09630223558101313 0.04004391406621126 0.2832789852914428
          -0.08199346437099887 0.04078355021600179 0.2746216931691528 -0.07509167562294793 0.029385053436951285 0.19350039648801157
          -0.060966363622907874 0.03015021097226576 0.18617895427641346 -0.13104389271979985 0.061596341133153806 0.4457314208303188
          -0.11836238597987794 0.06208190909242285 0.4398018990098861 -0.11295471414327979 0.05068258432066146 0.36369797563202966
          -0.10044767672805724 0.05134673267867843 0.35759102035099205 0 0 0
          0.001112877599888771 0.0005023326753195539 0.008343901589723026 -0.0005132853920629653 -0.0002780577944592698 -0.008349947086165705
          0 0 0 0.0003638999995892976 -0.0001334899980509094 0.0020859753974307566
          0.0003138789855527893 0.00011503221239372359 0.0008618572808016083 -0.00031074203525782566 -0.00021783691742553117 -0.002087486771541426
          0 0 0 0.00004345789225413557 -0.00022882762697298755 0.00021546432020040206
          0.0011479042224487026 0.006832055257790844 0.0464973330320375 -0.002441314226152024 0.005016496012158504 0.012747919819277975
          0.0015923924558560343 0.0025950028254779524 0.022054210245163162 -0.0009038739086732382 0.006023484896644845 0.03130628908174814
          -0.0010695146093746286 0.001054874228776253 -0.007250453902887633 0.00020139210890673853 0.0019072471697247847 0.00890389387143905
          -0.007556827473871396 0.021759966773925297 0.1343926882708225 -0.016775686423743563 0.020676955853285616 0.11197269676513878
          -0.0014815235906786347 0.013218654923519525 0.08337593676802946 -0.012423570821766339 0.021221729269284145 0.12391010283875707
          -0.006914699683805037 0.011569594304168087 0.05227802105154786 -0.004584625930969982 0.012462170545661948 0.06924852978107283
          -0.030217678960800867 0.042241885180604816 0.2681100818954002 -0.047456178909089305 0.041775885370341895 0.26387031516739345
          -0.017121161304716494 0.03168978034696733 0.19686494937006369 -0.03873739227402819 0.04197154266521329 0.2656523515414809
          -0.030723203235620635 0.03114393482138543 0.1848355828428281 -0.02396104684735488 0.031369180248728805 0.19085628463286997
          -0.06226000641767486 0.06383342864360775 0.42394915038977155 -0.08306754897133607 0.06329132554764463 0.4270476773970222
          -0.04565956560937137 0.05307139627832316 0.3448856331381851 -0.07245796680226274 0.0635341720852237 0.4250838894232031
          -0.06542187397678324 0.05251196358435997 0.3457249834488022 -0.05536542596969467 0.05277710908771809 0.34487074074484136
          -0.0019464950681920977 -0.0012851169862077567 -0.03105492798473419 0 0 0
          -0.0012922114407230693 -0.0007278149818046792 -0.019064534508802963 -0.0006410902605212391 -0.0000413500724144013 -0.007763731996183547
          0 0 0 -0.0005788685103738595 -0.00014163776678163692 -0.004766133627200741
          -0.005205876157570262 0.002787860547039305 -0.029463813476332833 -0.0037725904143351896 0.003906238072800449 -0.00792602946390502
          -0.0035801213811594737 -0.0011893602701374068 -0.046184613350000944 -0.002302596254294542 0.00002647481227473122 -0.02581217550197995
          -0.02794893604768983 0.019733072064911972 0.09308379335591531 -0.021616399694239313 0.0201669642203536 0.10091806271563555
          -0.011702550634166397 0.009983139860372416 0.01749610947829695 -0.009083442150948832 0.010692669606563171 0.03438651335783056
          -0.0688441252626234 0.0412650856338514 0.26801200779032236 -0.05721232714546185 0.04156902809391362 0.2641836436310399
          -0.04873335379241675 0.03062970478221821 0.1817666291340733 -0.03858738678035938 0.030926593265645733 0.18105498425740646
          -0.10603430705300321 0.06257693265549473 0.43446563097825913 -0.09421693502241091 0.06300540656101887 0.43009132201433803
          -0.0880286448766916 0.05184542484866057 0.3521387386349538 -0.07618943761699594 0.052220041570567796 0.34797282737164675
          -0.0034453720216470586 -0.00342543631867292 -0.061213389693934125 0 0 0
          -0.0026171955149925843 -0.0021257340257900036 -0.044908691663323286 -0.0001906866072039884 -0.00010614111174001473 -0.015303347423483531
          0 0 0 -0.000508124041023453 -0.0000013818491313515014 -0.011227172915830821
          -0.007260227765950507 -0.0005363223319625196 -0.07965884498259873 -0.00646160932004584 0.0013955961678075056 -0.05299742204142442
          -0.0067924283667542265 -0.0051660939492599945 -0.09643144836306733 -0.005033071561476882 -0.0028383201476017772 -0.06938522008951022
          -0.04332825285903226 0.018410725500029677 0.08338815590118903 -0.03533298919798939 0.01920456421534318 0.08754784048481934
          -0.015791319502341354 0.008107932746655402 -0.017513127559017055 -0.01414688859683736 0.009201421946701326 0.0005488742327475682
          -0.09630223558101313 0.04004391406621126 0.2832789852914428 -0.08199346437099887 0.04078355021600179 0.2746216931691528
          -0.07509167562294793 0.029385053436951285 0.19350039648801157 -0.060966363622907874 0.03015021097226576 0.18617895427641346
          -0.13104389271979985 0.061596341133153806 0.4457314208303188 -0.11836238597987794 0.06208190909242285 0.4398018990098861
          -0.11295471414327979 0.05068258432066146 0.36369797563202966 -0.10044767672805724 0.05134673267867843 0.35759102035099205
          0 0 0 0.001112877599888771 0.0005023326753195539 0.008343901589723026
          -0.0005132853920629653 -0.0002780577944592698 -0.008349947086165705 0 0 0
          0.0003638999995892976 -0.0001334899980509094 0.0020859753974307566 0.0003138789855527893 0.00011503221239372359 0.0008618572808016083
          -0.00031074203525782566 -0.00021783691742553117 -0.002087486771541426 0 0 0
          0.00004345789225413557 -0.00022882762697298755 0.00021546432020040206 0.0011479042224487026 0.006832055257790844 0.0464973330320375
          -0.002441314226152024 0.005016496012158504 0.012747919819277975 0.0015923924558560343 0.0025950028254779524 0.022054210245163162
          -0.0009038739086732382 0.006023484896644845 0.03130628908174814 -0.0010695146093746286 0.001054874228776253 -0.007250453902887633
          0.00020139210890673853 0.0019072471697247847 0.00890389387143905 -0.007556827473871396 0.021759966773925297 0.1343926882708225
          -0.016775686423743563 0.020676955853285616 0.11197269676513878 -0.0014815235906786347 0.013218654923519525 0.08337593676802946
          -0.012423570821766339 0.021221729269284145 0.12391010283875707 -0.006914699683805037 0.011569594304168087 0.05227802105154786
          -0.004584625930969982 0.012462170545661948 0.06924852978107283 -0.030217678960800867 0.042241885180604816 0.2681100818954002
          -0.047456178909089305 0.041775885370341895 0.26387031516739345 -0.017121161304716494 0.03168978034696733 0.19686494937006369
          -0.03873739227402819 0.04197154266521329 0.2656523515414809 -0.030723203235620635 0.03114393482138543 0.1848355828428281
          -0.02396104684735488 0.031369180248728805 0.19085628463286997 -0.06226000641767486 0.06383342864360775 0.42394915038977155
          -0.08306754897133607 0.06329132554764463 0.4270476773970222 -0.04565956560937137 0.05307139627832316 0.3448856331381851
          -0.07245796680226274 0.0635341720852237 0.4250838894232031 -0.06542187397678324 0.05251196358435997 0.3457249834488022
          -0.05536542596969467 0.05277710908771809 0.34487074074484136 -0.0019464950681920977 -0.0012851169862077567 -0.03105492798473419
          0 0 0 -0.0012922114407230693 -0.0007278149818046792 -0.019064534508802963
          -0.0006410902605212391 -0.0000413500724144013 -0.007763731996183547 0 0 0
          -0.0005788685103738595 -0.00014163776678163692 -0.004766133627200741 -0.005205876157570262 0.002787860547039305 -0.029463813476332833
          -0.0037725904143351896 0.003906238072800449 -0.00792602946390502 -0.0035801213811594737 -0.0011893602701374068 -0.046184613350000944
          -0.002302596254294542 0.00002647481227473122 -0.02581217550197995 -0.02794893604768983 0.019733072064911972 0.09308379335591531
          -0.021616399694239313 0.0201669642203536 0.10091806271563555 -0.011702550634166397 0.009983139860372416 0.01749610947829695
          -0.009083442150948832 0.010692669606563171 0.03438651335783056 -0.0688441252626234 0.0412650856338514 0.26801200779032236
          -0.05721232714546185 0.04156902809391362 0.2641836436310399 -0.04873335379241675 0.03062970478221821 0.1817666291340733
          -0.03858738678035938 0.030926593265645733 0.18105498425740646 -0.10603430705300321 0.06257693265549473 0.43446563097825913
          -0.09421693502241091 0.06300540656101887 0.43009132201433803 -0.0880286448766916 0.05184542484866057 0.3521387386349538
          -0.07618943761699594 0.052220041570567796 0.34797282737164675 -0.0034453720216470586 -0.00342543631867292 -0.061213389693934125
          0 0 0 -0.0026171955149925843 -0.0021257340257900036 -0.044908691663323286
          -0.0001906866072039884 -0.00010614111174001473 -0.015303347423483531 0 0 0
          -0.000508124041023453 -0.0000013818491313515014 -0.011227172915830821 -0.007260227765950507 -0.0005363223319625196 -0.07965884498259873
          -0.00646160932004584 0.0013955961678075056 -0.05299742204142442 -0.0067924283667542265 -0.0051660939492599945 -0.09643144836306733
          -0.005033071561476882 -0.0028383201476017772 -0.06938522008951022 -0.04332825285903226 0.018410725500029677 0.08338815590118903
          -0.03533298919798939 0.01920456421534318 0.08754784048481934 -0.015791319502341354 0.008107932746655402 -0.017513127559017055
          -0.01414688859683736 0.009201421946701326 0.0005488742327475682 -0.09630223558101313 0.04004391406621126 0.2832789852914428
          -0.08199346437099887 0.04078355021600179 0.2746216931691528 -0.07509167562294793 0.029385053436951285 0.19350039648801157
          -0.060966363622907874 0.03015021097226576 0.18617895427641346 -0.13104389271979985 0.061596341133153806 0.4457314208303188
          -0.11836238597987794 0.06208190909242285 0.4398018990098861 -0.11295471414327979 0.05068258432066146 0.36369797563202966
          -0.10044767672805724 0.05134673267867843 0.35759102035099205
          <InformationKey name="L2_NORM_RANGE" location="vtkDataArray" length="2">
            <Value index="0">
              0
            </Value>
            <Value index="1">
              0.46866097616
            </Value>
          </InformationKey>
        </DataArray>
        <DataArray type="Float32" Name="surface_normals" NumberOfComponents="3" format="ascii" RangeMin="0.999999915506417" RangeMax="1.000000111194195">
          -0.010410371 0 0.9999458 -0.049954373 0.044655666 0.99775267
          0.012696155 0.05987921 0.9981249 0.010453105 0 0.99994546
          -0.011499789 0.016810723 0.9997925 -0.020343857 0.050065707 0.99853873
          0.021845829 0.022479188 0.99950856 -0.0005206817 0.0062602824 0.99998033
          -0.002155752 0.0125177475 0.9999194 -0.15440659 0.08822062 0.9840608
          -0.15135248 0.11497636 0.98177034 -0.08644446 0.07245887 0.9936182
          -0.15276322 0.093008615 0.98387635 -0.0535483 0.09586825 0.99395263
          -0.07710322 0.087101184 0.9932112 -0.28509942 0.05203937 0.95708424
          -0.3343557 0.05584767 0.9407908 -0.22761633 0.074283704 0.9709133
          -0.30804896 0.054140545 0.9498288 -0.25348637 0.09166439 0.9629861
          -0.2342253 0.08694436 0.9682868 -0.3699144 -0.005217656 0.92905116
          -0.40210465 -0.018274419 0.91541135 -0.34530511 0.021130128 0.93825257
          -0.38580137 -0.006031839 0.9225622 -0.38181362 0.014261419 0.92412925
          -0.3555319 0.019246697 0.93446594 -0.39419037 -0.030427838 0.918525
          -0.4049801 -0.040221576 0.91344035 -0.39344275 -0.02067486 0.9191167
          -0.399958 -0.02979866 0.91604894 -0.406296 -0.03167217 0.9131925
          -0.39768645 -0.02593002 0.9171549 0.09618788 0.0776481 0.99232984
          0.038914006 0 0.99924266 0.05348878 0.06768798 0.99627167
          0.0789441 0.029054856 0.99645555 0.024294715 0.008518733 0.99966854
          0.04776615 0.01704506 0.9987131 -0.16263366 0.13189815 0.9778309
          -0.1551533 0.11550808 0.98111427 -0.00509783 0.118419565 0.99295056
          -0.029133782 0.11652158 0.9927608 -0.41305438 0.01957676 0.91049594
          -0.37184614 0.040098622 0.927428 -0.31397572 0.0835481 0.94574785
          -0.2764674 0.096262105 0.9561901 -0.42343447 -0.0599263 0.9039426
          -0.4148433 -0.03393343 0.90925986 -0.43647632 -0.032255415 0.8991373
          -0.40817118 -0.013670579 0.9128031 -0.40874022 -0.056300078 0.91091263
          -0.40776622 -0.046892054 0.91188157 -0.41236153 -0.05714275 0.90922654
          -0.41303173 -0.04560399 0.90957415 0.20207182 0.09709928 0.9745453
          0.076366104 0 0.99707985 0.14734918 0.08848663 0.9851184
          0.13248028 0.036311574 0.99052024 0.05691658 0.01125498 0.99831545
          0.11225514 0.022323554 0.9934287 -0.20017555 0.1555863 0.9673276
          -0.1799318 0.1355019 0.97430164 0.03204407 0.14598987 0.9887669
          0.018890122 0.15097181 0.9883576 -0.5262872 -0.004044292 0.8502973
          -0.46798527 0.0068856846 0.8837095 -0.38425258 0.086199634 0.91919506
          -0.3566695 0.09377949 0.92951185 -0.41985533 -0.08336006 0.9037547
          -0.42335764 -0.07045127 0.9032192 -0.47972324 -0.061819974 0.8752393
          -0.4635364 -0.0680082 0.88346416 -0.40708417 -0.06357701 0.91117543
          -0.40772036 -0.06192967 0.91100436 -0.40567416 -0.06853853 0.9114445
          -0.40974343 -0.06241733 0.91006297 -0.010410371 0 0.9999458
          -0.049954373 0.044655666 0.99775267 0.012696155 0.05987921 0.9981249
          0.010453105 0 0.99994546 -0.011499789 0.016810723 0.9997925
          -0.020343857 0.050065707 0.99853873 0.021845829 0.022479188 0.99950856
          -0.0005206817 0.0062602824 0.99998033 -0.002155752 0.0125177475 0.9999194
          -0.15440659 0.08822062 0.9840608 -0.15135248 0.11497636 0.98177034
          -0.08644446 0.07245887 0.9936182 -0.15276322 0.093008615 0.98387635
          -0.0535483 0.09586825 0.99395263 -0.07710322 0.087101184 0.9932112
          -0.28509942 0.05203937 0.95708424 -0.3343557 0.05584767 0.9407908
          -0.22761633 0.074283704 0.9709133 -0.30804896 0.054140545 0.9498288
          -0.25348637 0.09166439 0.9629861 -0.2342253 0.08694436 0.9682868
          -0.3699144 -0.005217656 0.92905116 -0.40210465 -0.018274419 0.91541135
          -0.34530511 0.021130128 0.93825257 -0.38580137 -0.006031839 0.9225622
          -0.38181362 0.014261419 0.92412925 -0.3555319 0.019246697 0.93446594
          -0.39419037 -0.030427838 0.918525 -0.4049801 -0.040221576 0.91344035
          -0.39344275 -0.02067486 0.9191167 -0.399958 -0.02979866 0.91604894
          -0.406296 -0.03167217 0.9131925 -0.39768645 -0.02593002 0.9171549
          0.09618788 0.0776481 0.99232984 0.038914006 0 0.99924266
          0.05348878 0.06768798 0.99627167 0.0789441 0.029054856 0.99645555
          0.024294715 0.008518733 0.99966854 0.04776615 0.01704506 0.9987131
          -0.16263366 0.13189815 0.9778309 -0.1551533 0.11550808 0.98111427
          -0.00509783 0.118419565 0.99295056 -0.029133782 0.11652158 0.9927608
          -0.41305438 0.01957676 0.91049594 -0.37184614 0.040098622 0.927428
          -0.31397572 0.0835481 0.94574785 -0.2764674 0.096262105 0.9561901
          -0.42343447 -0.0599263 0.9039426 -0.4148433 -0.03393343 0.90925986
          -0.43647632 -0.032255415 0.8991373 -0.40817118 -0.013670579 0.9128031
          -0.40874022 -0.056300078 0.91091263 -0.40776622 -0.046892054 0.91188157
          -0.41236153 -0.05714275 0.90922654 -0.41303173 -0.04560399 0.90957415
          0.20207182 0.09709928 0.9745453 0.076366104 0 0.99707985
          0.14734918 0.08848663 0.9851184 0.13248028 0.036311574 0.99052024
          0.05691658 0.01125498 0.99831545 0.11225514 0.022323554 0.9934287
          -0.20017555 0.1555863 0.9673276 -0.1799318 0.1355019 0.97430164
          0.03204407 0.14598987 0.9887669 0.018890122 0.15097181 0.9883576
          -0.5262872 -0.004044292 0.8502973 -0.46798527 0.0068856846 0.8837095
          -0.38425258 0.086199634 0.91919506 -0.3566695 0.09377949 0.92951185
          -0.41985533 -0.08336006 0.9037547 -0.42335764 -0.07045127 0.9032192
          -0.47972324 -0.061819974 0.8752393 -0.4635364 -0.0680082 0.88346416
          -0.40708417 -0.06357701 0.91117543 -0.40772036 -0.06192967 0.91100436
          -0.40567416 -0.06853853 0.9114445 -0.40974343 -0.06241733 0.91006297
          -0.010410371 0 0.9999458 -0.049954373 0.044655666 0.99775267
          0.012696155 0.05987921 0.9981249 0.010453105 0 0.99994546
          -0.011499789 0.016810723 0.9997925 -0.020343857 0.050065707 0.99853873
          0.021845829 0.022479188 0.99950856 -0.0005206817 0.0062602824 0.99998033
          -0.002155752 0.0125177475 0.9999194 -0.15440659 0.08822062 0.9840608
          -0.15135248 0.11497636 0.98177034 -0.08644446 0.07245887 0.9936182
          -0.15276322 0.093008615 0.98387635 -0.0535483 0.09586825 0.99395263
          -0.07710322 0.087101184 0.9932112 -0.28509942 0.05203937 0.95708424
          -0.3343557 0.05584767 0.9407908 -0.22761633 0.074283704 0.9709133
          -0.30804896 0.054140545 0.9498288 -0.25348637 0.09166439 0.9629861
          -0.2342253 0.08694436 0.9682868 -0.3699144 -0.005217656 0.92905116
          -0.40210465 -0.018274419 0.91541135 -0.34530511 0.021130128 0.93825257
          -0.38580137 -0.006031839 0.9225622 -0.38181362 0.014261419 0.92412925
          -0.3555319 0.019246697 0.93446594 -0.39419037 -0.030427838 0.918525
          -0.4049801 -0.040221576 0.91344035 -0.39344275 -0.02067486 0.9191167
          -0.399958 -0.02979866 0.91604894 -0.406296 -0.03167217 0.9131925
          -0.39768645 -0.02593002 0.9171549 0.09618788 0.0776481 0.99232984
          0.038914006 0 0.99924266 0.05348878 0.06768798 0.99627167
          0.0789441 0.029054856 0.99645555 0.024294715 0.008518733 0.99966854
          0.04776615 0.01704506 0.9987131 -0.16263366 0.13189815 0.9778309
          -0.1551533 0.11550808 0.98111427 -0.00509783 0.118419565 0.99295056
          -0.029133782 0.11652158 0.9927608 -0.41305438 0.01957676 0.91049594
          -0.37184614 0.040098622 0.927428 -0.31397572 0.0835481 0.94574785
          -0.2764674 0.096262105 0.9561901 -0.42343447 -0.0599263 0.9039426
          -0.4148433 -0.03393343 0.90925986 -0.43647632 -0.032255415 0.8991373
          -0.40817118 -0.013670579 0.9128031 -0.40874022 -0.056300078 0.91091263
          -0.40776622 -0.046892054 0.91188157 -0.41236153 -0.05714275 0.90922654
          -0.41303173 -0.04560399 0.90957415 0.20207182 0.09709928 0.9745453
          0.076366104 0 0.99707985 0.14734918 0.08848663 0.9851184
          0.13248028 0.036311574 0.99052024 0.05691658 0.01125498 0.99831545
          0.11225514 0.022323554 0.9934287 -0.20017555 0.1555863 0.9673276
          -0.1799318 0.1355019 0.97430164 0.03204407 0.14598987 0.9887669
          0.018890122 0.15097181 0.9883576 -0.5262872 -0.004044292 0.8502973
          -0.46798527 0.0068856846 0.8837095 -0.38425258 0.086199634 0.91919506
          -0.3566695 0.09377949 0.92951185 -0.41985533 -0.08336006 0.9037547
          -0.42335764 -0.07045127 0.9032192 -0.47972324 -0.061819974 0.8752393
          -0.4635364 -0.0680082 0.88346416 -0.40708417 -0.06357701 0.91117543
          -0.40772036 -0.06192967 0.91100436 -0.40567416 -0.06853853 0.9114445
          -0.40974343 -0.06241733 0.91006297
          <InformationKey name="L2_NORM_RANGE" location="vtkDataArray" length="2">
            <Value index="0">
              0.99999991551
            </Value>
            <Value index="1">
              1.0000001112
            </Value>
          </InformationKey>
        </DataArray>
      </PointData>
      <CellData Scalars="element_gid">
        <DataArray type="Float64" Name="element_gid" format="ascii" RangeMin="0" RangeMax="14">
          0 1 2 3 4 5
          6 7 8 9 10 11
          12 13 14
        </DataArray>
        <DataArray type="Float64" Name="element_owner" format="ascii" RangeMin="0" RangeMax="0">
          0 0 0 0 0 0
          0 0 0 0 0 0
          0 0 0
        </DataArray>
        <DataArray type="Int32" Name="material_id" format="ascii" RangeMin="1" RangeMax="1">
          1 1 1 1 1 1
          1 1 1 1 1 1
          1 1 1
        </DataArray>
      </CellData>
      <Points>
        <DataArray type="Float64" Name="Points" NumberOfComponents="3" format="ascii" RangeMin="0.013536747928854457" RangeMax="1.1272140425046142">
          -1 -0.5 0 -0.5988871224001112 -0.4994976673246804 0.008343901589723026
          -0.600513285392063 -0.16694472446112596 -0.008349947086165705 -1 -0.16666666666666669 0
          -0.7996361000004107 -0.500133489998051 0.0020859753974307566 -0.5996861210144473 -0.33321830112093964 0.0008618572808016083
          -0.8003107420352579 -0.16688450358409224 -0.002087486771541426 -1 -0.33333333333333337 0
          -0.7999565421077458 -0.33356216096030633 0.00021546432020040206 -0.19885209577755128 -0.49316794474220915 0.0464973330320375
          -0.202441314226152 -0.16165017065450818 0.012747919819277975 -0.39840760754414395 -0.497404997174522 0.022054210245163162
          -0.20090387390867318 -0.32730984843668853 0.03130628908174814 -0.40106951460937457 -0.1656117924378904 -0.007250453902887633
          -0.3997986078910932 -0.3314260861636086 0.00890389387143905 0.19244317252612878 -0.4782400332260747 0.1343926882708225
          0.18322431357625663 -0.14598971081338108 0.11197269676513878 -0.0014815235906786139 -0.4867813450764806 0.08337593676802946
          0.18757642917823383 -0.31211160406404925 0.12391010283875707 -0.0069146996838050055 -0.1550970723624986 0.05227802105154786
          -0.004584625930969943 -0.32087116278767136 0.06924852978107283 0.5697823210391992 -0.4577581148193952 0.2681100818954002
          0.5525438210909108 -0.12489078129632479 0.26387031516739345 0.38287883869528366 -0.46831021965303266 0.19686494937006369
          0.561262607725972 -0.29136179066812007 0.2656523515414809 0.36927679676437947 -0.13552273184528124 0.1848355828428281
          0.37603895315264524 -0.30196415308460456 0.19085628463286997 0.9377399935823252 -0.43616657135639225 0.42394915038977155
          0.9169324510286639 -0.10337534111902205 0.4270476773970222 0.7543404343906287 -0.44692860372167686 0.3448856331381851
          0.9275420331977373 -0.26979916124810965 0.4250838894232031 0.7345781260232168 -0.11415470308230671 0.3457249834488022
          0.7446345740303053 -0.28055622424561527 0.34487074074484136 -0.6019464950681921 0.16538154968045887 -0.03105492798473419
          -1 0.16666666666666663 0 -0.6012922114407232 -0.0007278149818046862 -0.019064534508802963
          -0.8006410902605213 0.16662531659425223 -0.007763731996183547 -1.0000000000000002 0 0
          -0.8005788685103739 -0.0001416377667816404 -0.004766133627200741 -0.2052058761575702 0.16945452721370594 -0.029463813476332833
          -0.20377259041433518 0.0039062380728004456 -0.00792602946390502 -0.4035801213811594 0.16547730639652922 -0.046184613350000944
          -0.40230259625429443 0.00002647481227474683 -0.02581217550197995 0.17205106395231035 0.1863997387315786 0.09308379335591531
          0.1783836003057609 0.020166964220353602 0.10091806271563555 -0.011702550634166359 0.17664980652703904 0.01749610947829695
          -0.009083442150948792 0.01069266960656318 0.03438651335783056 0.5311558747373767 0.20793175230051802 0.26801200779032236
          0.5427876728545383 0.041569028093913614 0.2641836436310399 0.3512666462075833 0.19729637144888484 0.1817666291340733
          0.36141261321964074 0.030926593265645747 0.18105498425740646 0.8939656929469968 0.22924359932216137 0.43446563097825913
          0.9057830649775893 0.06300540656101887 0.43009132201433803 0.7119713551233084 0.2185120915153272 0.3521387386349538
          0.723810562383004 0.052220041570567796 0.34797282737164675 -0.603445372021647 0.4965745636813271 -0.061213389693934125
          -1 0.5 0 -0.6026171955149926 0.33120759930754334 -0.044908691663323286
          -0.800190686607204 0.49989385888826 -0.015303347423483531 -1 0.3333333333333333 0
          -0.8005081240410234 0.33333195148420197 -0.011227172915830821 -0.2072602277659505 0.49946367766803745 -0.07965884498259873
          -0.20646160932004576 0.3347289295011408 -0.05299742204142442 -0.40679242836675417 0.49483390605074 -0.09643144836306733
          -0.4050330715614768 0.3304950131857315 -0.06938522008951022 0.15667174714096793 0.5184107255000296 0.08338815590118903
          0.1646670108020108 0.3525378975486765 0.08754784048481934 -0.015791319502341333 0.5081079327466556 -0.017513127559017055
          -0.014146888596837324 0.3425347552800346 0.0005488742327475682 0.503697764418987 0.5400439140662112 0.2832789852914428
          0.5180065356290013 0.37411688354933514 0.2746216931691528 0.3249083243770522 0.5293850534369513 0.19350039648801157
          0.3390336363770923 0.36348354430559904 0.18617895427641346 0.8689561072802001 0.5615963411331538 0.4457314208303188