<?xml version="1.0"?>
<VTKFile type="UnstructuredGrid" version="0.1" byte_order="LittleEndian" header_type="UInt32" compressor="vtkZLibDataCompressor">
  <UnstructuredGrid>
    <Piece NumberOfPoints="738" NumberOfCells="1472">
      <PointData Scalars="displacement">
        <DataArray type="Float64" Name="displacement" NumberOfComponents="3" format="ascii" RangeMin="0" RangeMax="0.4686609761603424">
          0 0 0 0 0 0
          0 0 0 0 0 0
          0 0 0 0 0 0
          0 0 0 0 0 0
          0 0 0 0 0 0
          0 0 0 0 0 0
          0 0 0 0 0 0
          0 0 0 0 0 0
          0 0 0 0 0 0
          0 0 0 0 0 0
          0 0 0 0 0 0
          0 0 0 0 0 0
          0 0 0 0.001112877599888771 0.0005023326753195539 0.008343901589723026
          0.001112877599888771 0.0005023326753195539 0.008343901589723026 0.0003638999995892976 -0.0001334899980509094 0.0020859753974307566
          0.001112877599888771 0.0005023326753195539 0.008343901589723026 0.0003638999995892976 -0.0001334899980509094 0.0020859753974307566
          0.0003638999995892976 -0.0001334899980509094 0.0020859753974307566 0.00013381529970587683 -0.00016290908295312628 0.0005214938493576892
          0.00013381529970587683 -0.00016290908295312628 0.0005214938493576893 0.0006902540996502624 0.00008825725470665066 0.004693444644219202
          0.001112877599888771 0.0005023326753195539 0.008343901589723026 0.0006902540996502623 0.0000882572547066507 0.004693444644219202
          0.001112877599888771 0.0005023326753195539 0.008343901589723026 0.0006902540996502624 0.00008825725470665066 0.004693444644219202
          0.0006902540996502624 0.00008825725470665067 0.004693444644219203 0.00013381529970587683 -0.00016290908295312628 0.0005214938493576892
          0.00013381529970587683 -0.0001629090829531263 0.0005214938493576892 0.0003638999995892976 -0.0001334899980509094 0.0020859753974307566
          0.00013381529970587683 -0.00016290908295312628 0.0005214938493576892 0.0006902540996502624 0.00008825725470665066 0.004693444644219202
          0.0003638999995892976 -0.0001334899980509094 0.0020859753974307566 -0.0005132853920629653 -0.0002780577944592698 -0.008349947086165705
          -0.00031074203525782566 -0.00021783691742553117 -0.002087486771541426 0.0003138789855527893 0.00011503221239372359 0.0008618572808016083
          0.00004345789225413557 -0.00022882762697298755 0.00021546432020040206 0.0000663116284415184 -0.000184513158221422 0.00030119371515737836
          -0.0001688958524354986 -0.00012862046376173965 -0.0005218716928853565 -0.00008504394762916931 -0.00016736884862572868 -0.00022048905596414438
          -0.0004255385484669812 -0.00026764936099137455 -0.004696845235968209 -0.00009618248284511634 -0.00008078909804187772 -0.003527824895426312
          -0.00013313518905172747 -0.00020776339764666754 -0.0019844015036773006 0.0007168990131307518 0.00030940613684753414 0.004819099442518055
          0.0004247611350068943 -0.00002981008979765493 0.0027107434364164055 -0.000006641454003496987 -0.00018599974677895612 0.000053866080050100516
          0.00020789867344381648 -0.0001944498548206403 0.0012047748606295137 -0.00012942234397974515 -0.0002366233145079512 -0.000881956223856578
          0.00015029803877289767 -0.00012848364058209432 0.00048479472045090464 0.0011479042224487026 0.006832055257790844 0.0464973330320375
          0.0011479042224487026 0.006832055257790844 0.0464973330320375 0.0015923924558560343 0.0025950028254779524 0.022054210245163162
          0.0011479042224487026 0.006832055257790844 0.0464973330320375 0.0015923924558560343 0.0025950028254779524 0.022054210245163162
          0.0015923924558560343 0.0025950028254779524 0.022054210245163162 0.001468135414044227 0.0012806199651294414 0.013857454151013818
          0.001468135414044227 0.0012806199651294414 0.01385745415101382 0.0014856487253241929 0.0044454812563650865 0.03293416987217106
          0.0011479042224487026 0.006832055257790844 0.0464973330320375 0.0014856487253241929 0.0044454812563650865 0.03293416987217106
          0.0011479042224487026 0.006832055257790844 0.0464973330320375 0.0014856487253241929 0.0044454812563650865 0.03293416987217105
          0.0014856487253241929 0.0044454812563650865 0.03293416987217106 0.001468135414044227 0.0012806199651294414 0.013857454151013818
          0.001468135414044227 0.0012806199651294414 0.01385745415101382 0.0015923924558560343 0.0025950028254779524 0.022054210245163162
          0.001468135414044227 0.0012806199651294414 0.013857454151013818 0.0014856487253241929 0.0044454812563650865 0.03293416987217105
          0.0015923924558560343 0.0025950028254779524 0.022054210245163162 -0.002441314226152024 0.005016496012158504 0.012747919819277975
          -0.0010695146093746286 0.001054874228776253 -0.007250453902887633 -0.0009038739086732382 0.006023484896644845 0.03130628908174814
          0.00020139210890673853 0.0019072471697247847 0.00890389387143905 0.0009230321977496611 0.0010132323709264937 0.008782738438362164
          -0.0006894537007855804 0.000059821997140150664 -0.01016256056188761 -0.00015576235966524254 0.0004028333869318483 -0.003227268918088551
          -0.0016534681178301098 0.002707098900449037 0.0003863728908342287 -0.0017368862941180257 0.005544792769819217 0.022448020114535658
          -0.0009761142653016971 0.0032156243208623955 0.009760653586892433 0.000057722930182337826 0.006452572392635388 0.03932272672091541
          0.0005934441562754542 0.00408481549882042 0.02603455207756085 0.0003817329398465047 0.0007206368448606293 0.003087830748661374
          0.0008818805787978954 0.0022717021582507892 0.015854555983376428 -0.00044907295381743607 0.0015016378598999393 0.0012022239093510303
          -0.00022714350726650912 0.00367486318698619 0.01831004664913464 0 0 0
          -0.0019464950681920977 -0.0012851169862077567 -0.03105492798473419 0 0 0
          -0.0006410902605212391 -0.0000413500724144013 -0.007763731996183547 -0.0012922114407230693 -0.0007278149818046792 -0.019064534508802963
          -0.0005788685103738595 -0.00014163776678163692 -0.004766133627200741 0 0 0
          -0.00023811643269745552 -0.00007587464680178054 -0.0008467353150514115 0 0 0
          -0.00023750581186691712 0.00012962706896516862 -0.0019409329990458868 -0.0002724214124131648 0.00005324911956167362 -0.001556265968131677
          -0.001210753345962966 -0.0005129314241387097 -0.01746839699141298 -0.001634933557106468 -0.0009930228818740095 -0.02490025549010683
          -0.0010898881909663987 -0.00044326232137533117 -0.014006393713185092 -0.0009183287190419017 -0.000489493285999766 -0.013547765040822588
          -0.0006972807922184064 -0.00032062128980166356 -0.007620617835462705 -0.00027262495269001093 -0.000015251452360642787 -0.0011915334068001852
          -0.00047054336343692435 -0.00018274841006900172 -0.003386941260205647 -0.0006357174760686311 -0.00009450498756343679 -0.006225063872526707
          -0.0009187306730515456 -0.00037915894326298236 -0.010723800661201667 -0.005205876157570262 0.002787860547039305 -0.029463813476332833
          -0.0035801213811594737 -0.0011893602701374068 -0.046184613350000944 -0.0037725904143351896 0.003906238072800449 -0.00792602946390502
          -0.002302596254294542 0.00002647481227473122 -0.02581217550197995 -0.0012179731263515419 -0.00031827974702415573 -0.017624008833652012
          -0.002764292166745359 -0.001722421640810877 -0.042601081322234426 -0.002255392359331431 -0.0012094015659996694 -0.033843269213825425
          -0.004393982711434441 0.0003140671258126538 -0.04180552406803375 -0.004476482091571237 0.0033480642582202633 -0.01858694212896332
          -0.0036761666265638163 0.0009611420040474667 -0.030686612533253665 -0.0030942011258621185 0.004462381990779862 0.002518924518842081
          -0.0023059093297616504 0.0021576578913656587 -0.009590664053819677 -0.001739952679200159 -0.0007413542680707624 -0.025517578384297947
          -0.001680499996591458 0.0005641039787643192 -0.016304975171317706 -0.0029358033824838804 -0.0005580132706925107 -0.03577205489487436
          -0.002980142166006219 0.0015756722592318018 -0.019948325861848974 0 0 0
          0 0 0 0 0 0
          0 0 0 0 0 0
          0 0 0 0 0 0
          0 0 0 0 0 0
          0 0 0 0 0 0
          0 0 0 0 0 0
          0 0 0 0 0 0
          0 0 0 -0.007556827473871396 0.021759966773925297 0.1343926882708225
          -0.007556827473871396 0.021759966773925297 0.1343926882708225 -0.0014815235906786347 0.013218654923519525 0.08337593676802946
          -0.007556827473871396 0.021759966773925297 0.1343926882708225 -0.0014815235906786347 0.013218654923519525 0.08337593676802946
          -0.0014815235906786347 0.013218654923519525 0.08337593676802946 0.0002639248246432118 0.009756016067570547 0.06316936642918333
          0.0002639248246432119 0.009756016067570547 0.06316936642918335 -0.004088441023516838 0.017219971825637774 0.10711704404857585
          -0.007556827473871396 0.021759966773925297 0.1343926882708225 -0.004088441023516837 0.017219971825637774 0.10711704404857586
          -0.007556827473871396 0.021759966773925297 0.1343926882708225 -0.004088441023516838 0.017219971825637774 0.10711704404857585
          -0.004088441023516837 0.017219971825637774 0.10711704404857586 0.0002639248246432118 0.009756016067570547 0.06316936642918335
          0.0002639248246432119 0.009756016067570547 0.06316936642918335 -0.0014815235906786347 0.013218654923519525 0.08337593676802946
          0.0002639248246432118 0.009756016067570547 0.06316936642918335 -0.004088441023516838 0.017219971825637774 0.10711704404857585
          -0.0014815235906786347 0.013218654923519525 0.08337593676802946 -0.016775686423743563 0.020676955853285616 0.11197269676513878
          -0.006914699683805037 0.011569594304168087 0.05227802105154786 -0.012423570821766339 0.021221729269284145 0.12391010283875707
          -0.004584625930969982 0.012462170545661948 0.06924852978107283 -0.0010688154498665592 0.009376324684081675 0.056080082247749435
          -0.004004556794692841 0.007973762251024802 0.029992398625247788 -0.003203056259534586 0.008485197775808802 0.03949159834578166
          -0.011171742893488611 0.015803992171588357 0.0796047870981782 -0.014663957090994665 0.02095015955020455 0.11812325238214204
          -0.009666591657972906 0.01618788116600147 0.08732921447958485 -0.010054527616058583 0.021491665010524394 0.1293332481349839
          -0.006124940722987019 0.01689587099302618 0.10108534295478368 -0.0022244758112591584 0.00895271858682776 0.04818749288661554
          -0.003129703334256345 0.012857424217545273 0.07666762099237219 -0.005846291380819546 0.012032893907869553 0.06111866313413139
          -0.00798432426780571 0.01655184077314741 0.09448939976512001 -0.02794893604768983 0.019733072064911972 0.09308379335591531
          -0.011702550634166397 0.009983139860372416 0.01749610947829695 -0.021616399694239313 0.0201669642203536 0.10091806271563555
          -0.009083442150948832 0.010692669606563171 0.03438651335783056 -0.004741211149521318 0.0074544929861049295 0.020094589346232428
          -0.007235499528752418 0.006066168592305054 -0.009562322114391515 -0.006356682516551106 0.0065006961567450556 0.0003172289764127767
          -0.018607029473812202 0.01453877435124139 0.05171148130173256 -0.024596189985595224 0.019940505707946487 0.09659838244955256
          -0.0164165364635631 0.014796916881608167 0.05790989126567072 -0.01900956517362209 0.02041244760213331 0.1060428341541643
          -0.012698893173401305 0.015429525791781652 0.07185654416389353 -0.005525253056807406 0.006963470954678347 0.010202866129954092
          -0.007942775165367713 0.01111020758643886 0.043207129227916245 -0.010336700640548393 0.010316980364541024 0.025816173441290793
          -0.014447157696759468 0.015093834028454923 0.06462491221972437 -0.030217678960800867 0.042241885180604816 0.2681100818954002
          -0.030217678960800867 0.042241885180604816 0.2681100818954002 -0.017121161304716494 0.03168978034696733 0.19686494937006369
          -0.030217678960800867 0.042241885180604816 0.2681100818954002 -0.017121161304716494 0.03168978034696733 0.19686494937006369
          -0.017121161304716494 0.03168978034696733 0.19686494937006369 -0.011897471411139036 0.02664708715287188 0.16453220989218117
          -0.011897471411139036 0.02664708715287188 0.16453220989218117 -0.02322789715460377 0.03688804635621164 0.23139090670447002
          -0.030217678960800867 0.042241885180604816 0.2681100818954002 -0.02322789715460377 0.03688804635621164 0.23139090670447002
          -0.030217678960800867 0.042241885180604816 0.2681100818954002 -0.02322789715460377 0.03688804635621164 0.23139090670447002
          -0.02322789715460377 0.03688804635621164 0.23139090670447002 -0.011897471411139036 0.02664708715287188 0.16453220989218117
          -0.011897471411139036 0.02664708715287188 0.16453220989218117 -0.017121161304716494 0.03168978034696733 0.19686494937006369
          -0.011897471411139036 0.02664708715287188 0.16453220989218117 -0.02322789715460377 0.03688804635621164 0.23139090670447002
          -0.017121161304716494 0.03168978034696733 0.19686494937006369 -0.047456178909089305 0.041775885370341895 0.26387031516739345
          -0.030723203235620635 0.03114393482138543 0.1848355828428281 -0.03873739227402819 0.04197154266521329 0.2656523515414809
          -0.02396104684735488 0.031369180248728805 0.19085628463286997 -0.014876981589748005 0.026435372818143274 0.1605469649040534
          -0.02340126247198315 0.025889823889728443 0.14763265902312395 -0.02062887712017006 0.026056741186571555 0.15209718946952477
          -0.03874150871465602 0.03643928864825658 0.2235814682242513 -0.04307190142632952 0.041864378365212576 0.2646768716069582
          -0.03483284928783749 0.03651385059407556 0.22537399908193287 -0.034452651452185304 0.04209737827034404 0.26679675497096156
          -0.027076043507811367 0.03673822944805309 0.22927871832204225 -0.017787450159425015 0.026238590829376497 0.15640195809650126
          -0.020550820220332267 0.031517560963986176 0.19386212163307284 -0.027351841185784334 0.031244638201195225 0.18784743836945506
          -0.030944360885555938 0.03661349752734107 0.2272730824478632 -0.0688441252626234 0.0412650856338514 0.26801200779032236
          -0.04873335379241675 0.03062970478221821 0.1817666291340733 -0.05721232714546185 0.04156902809391362 0.2641836436310399
          -0.03858738678035938 0.030926593265645733 0.18105498425740646 -0.02639366639701755 0.02572799936039716 0.14360542765367101
          -0.038425350704368325 0.025214044906774223 0.13772989338523292 -0.03390571051321014 0.02539010986892005 0.1386540448347255
          -0.05887294531183511 0.035980051691243936 0.22519400060243644 -0.062793769968944 0.04142919251183676 0.26565844624872664
          -0.053004500504884526 0.03613445327086518 0.2231840767343125 -0.05209979679217695 0.041684592380082 0.26358759993726216
          -0.04293878220629498 0.03636407174937151 0.22237781054521993 -0.029895149077426547 0.025561428020127695 0.14061255625753818
          -0.03437007207457518 0.03104520740947656 0.18238375311735622 -0.04337514735297324 0.03078809238989295 0.1808492762629788
          -0.04769311280303782 0.03626245995690771 0.22224534671524038 -0.06226000641767486 0.06383342864360775 0.42394915038977155
          -0.06226000641767486 0.06383342864360775 0.42394915038977155 -0.04565956560937137 0.05307139627832316 0.3448856331381851
          -0.06226000641767486 0.06383342864360775 0.42394915038977155 -0.04565956560937137 0.05307139627832316 0.3448856331381851
          -0.04565956560937137 0.05307139627832316 0.3448856331381851 -0.0377938030151195 0.047665075571018206 0.3062118617656925
          -0.0377938030151195 0.047665075571018206 0.3062118617656925 -0.05381496674355649 0.05846084730251967 0.38413139601287816
          -0.06226000641767486 0.06383342864360775 0.42394915038977155 -0.05381496674355649 0.05846084730251968 0.38413139601287816
          -0.06226000641767486 0.06383342864360775 0.42394915038977155 -0.05381496674355649 0.05846084730251967 0.3841313960128781
          -0.05381496674355649 0.05846084730251968 0.38413139601287816 -0.0377938030151195 0.047665075571018206 0.3062118617656925
          -0.0377938030151195 0.047665075571018206 0.3062118617656925 -0.04565956560937137 0.05307139627832316 0.3448856331381851
          -0.0377938030151195 0.047665075571018206 0.3062118617656925 -0.05381496674355649 0.05846084730251967 0.3841313960128781
          -0.04565956560937137 0.05307139627832316 0.3448856331381851 -0.08306754897133607 0.06329132554764463 0.4270476773970222
          -0.06542187397678324 0.05251196358435997 0.3457249834488022 -0.07245796680226274 0.0635341720852237 0.4250838894232031
          -0.05536542596969467 0.05277710908771809 0.34487074074484136 -0.04235780680897149 0.04751738069148819 0.30557433080625584
          -0.05647902895207891 0.04713851400869261 0.30486414609974644 -0.0517004197774512 0.04725409991032539 0.3049004729732828
          -0.0742847139832023 0.05789623409734398 0.38645282721456076 -0.07771130516373873 0.06340569756383355 0.4259621522925642
          -0.0690201216461558 0.05802475950963588 0.3855431133160858 -0.06730753388690812 0.0636767491118151 0.42441288878893885
          -0.0587852480263329 0.05830706611222373 0.3843823977152445 -0.046993345729748726 0.047380388804590584 0.30513720120878596
          -0.05046867233368736 0.05292060997211476 0.34476954505435015 -0.0603498265173933 0.05264089362513316 0.3451892202096587
          -0.06385363299386601 0.0581617035145958 0.38485297014964703 -0.10603430705300321 0.06257693265549473 0.43446563097825913
          -0.0880286448766916 0.05184542484866057 0.3521387386349538 -0.09421693502241091 0.06300540656101887 0.43009132201433803
          -0.07618943761699594 0.052220041570567796 0.34797282737164675 -0.061471356086727796 0.04701820352711519 0.305251814388179
          -0.07858374224937707 0.046536359167252864 0.31030035302530384 -0.07252371273537687 0.04671712610639532 0.30796991785095773
          -0.09717883314456698 0.057192282678074524 0.3935271646192723 -0.10004212279026738 0.0628089889731191 0.43211214345297294
          -0.09114788914603857 0.05740702433703649 0.3911967664530809 -0.08855874374943382 0.06316618541919405 0.42840316666235445
          -0.07970082956535622 0.05775900004667121 0.38765959775072517 -0.06681958401449378 0.04687774089301609 0.30628707163858276
          -0.07067170034445422 0.05237633941597827 0.34660914699266665 -0.0819750857944084 0.05204307004812857 0.34981602458574246
          -0.08532188795296831 0.05759593012656872 0.3892409108302318 -0.08306754897133607 0.06329132554764463 0.4270476773970222
          -0.08306754897133607 0.06329132554764463 0.4270476773970222 -0.07245796680226274 0.0635341720852237 0.4250838894232031
          -0.07245796680226274 0.0635341720852237 0.4250838894232031 -0.06730753388690812 0.0636767491118151 0.42441288878893885
          -0.08306754897133607 0.06329132554764463 0.4270476773970222 -0.07771130516373873 0.06340569756383355 0.42596215229256423
          -0.08306754897133607 0.06329132554764463 0.4270476773970222 -0.07771130516373873 0.06340569756383355 0.4259621522925642
          -0.07771130516373873 0.06340569756383355 0.42596215229256423 -0.06730753388690812 0.0636767491118151 0.42441288878893885
          -0.06730753388690812 0.0636767491118151 0.42441288878893885 -0.07245796680226274 0.0635341720852237 0.4250838894232031
          -0.06730753388690812 0.0636767491118151 0.42441288878893885 -0.07771130516373873 0.06340569756383355 0.4259621522925642
          -0.07245796680226274 0.0635341720852237 0.4250838894232031 -0.10603430705300321 0.06257693265549473 0.43446563097825913
          -0.10603430705300321 0.06257693265549473 0.43446563097825913 -0.09421693502241091 0.06300540656101887 0.43009132201433803
          -0.09421693502241091 0.06300540656101887 0.43009132201433803 -0.08855874374943382 0.06316618541919405 0.42840316666235445
          -0.10603430705300321 0.06257693265549473 0.43446563097825913 -0.10004212279026736 0.0628089889731191 0.43211214345297294
          -0.10603430705300321 0.06257693265549473 0.43446563097825913 -0.10004212279026738 0.0628089889731191 0.43211214345297294
          -0.10004212279026736 0.0628089889731191 0.43211214345297294 -0.08855874374943382 0.06316618541919405 0.42840316666235445
          -0.08855874374943382 0.06316618541919405 0.42840316666235445 -0.09421693502241091 0.06300540656101887 0.43009132201433803
          -0.08855874374943382 0.06316618541919405 0.42840316666235445 -0.10004212279026738 0.0628089889731191 0.43211214345297294
          -0.09421693502241091 0.06300540656101887 0.43009132201433803 0 0 0
          -0.0034453720216470586 -0.00342543631867292 -0.061213389693934125 0 0 0
          -0.0001906866072039884 -0.00010614111174001473 -0.015303347423483531 -0.0026171955149925843 -0.0021257340257900036 -0.044908691663323286
          -0.000508124041023453 -0.0000013818491313515014 -0.011227172915830821 0 0 0
          -0.0001654794414080928 0.00020354871238972784 -0.0023547151893766266 0 0 0
          0.000287656547302891 0.00034857370602910397 -0.003825836855870883 0.00009710173817681131 0.00031302203092169553 -0.0032971671177891245
          -0.0014350294635206383 -0.0013641444533073561 -0.03443253170283794 -0.003011599260838073 -0.002718199515568878 -0.052754673884625986
          -0.0014086978922422254 -0.0010460777268627435 -0.029674504060102115 -0.0022621607841105925 -0.0016480398493362964 -0.03767544303002602
          -0.001296559833463389 -0.0006204712122784204 -0.021192436704389635 -0.000053943591393516686 0.00026468036637523684 -0.0028067932289577054
          -0.0005976660525625558 -0.0000032750250364122727 -0.009418860757506505 -0.00037246422590393047 -0.000035670544699218987 -0.013188668471156496
          -0.0013625413488898089 -0.000798186646519765 -0.025261139060619348 -0.007260227765950507 -0.0005363223319625196 -0.07965884498259873
          -0.0067924283667542265 -0.0051660939492599945 -0.09643144836306733 -0.00646160932004584 0.0013955961678075056 -0.05299742204142442
          -0.005033071561476882 -0.0028383201476017772 -0.06938522008951022 -0.0033131717666426853 -0.0023346544350714674 -0.052001496537025925
          -0.0054788073124395036 -0.005092068789952026 -0.08532125178470096 -0.004670429339489758 -0.004019478009642042 -0.07336158176825919
          -0.007386235184591227 -0.003647511796596826 -0.09454397942903325 -0.0069180578825695374 0.0004970936829897712 -0.06593715671500124
          -0.006623658650355489 -0.0024118314103627175 -0.0799528231834468 -0.005890882078379415 0.0021591851224906835 -0.04083964096186829
          -0.005127532413777096 -0.0004310419491579776 -0.05358359550294706 -0.003948550824224151 -0.0031003398913485225 -0.06225499668570084
          -0.004268295643198186 -0.0019289884683453612 -0.0573042140279996 -0.005874449135995562 -0.003917355307906655 -0.0824276315345328
          -0.005870757726750778 -0.001339674794549768 -0.06629936187475141 0 0 0
          0 0 0 0 0 0
          0 0 0 0 0 0
          0 0 0 0 0 0
          0 0 0 0 0 0
          0 0 0 0 0 0
          0 0 0 0 0 0
          0 0 0 0 0 0
          0 0 0 -0.04332825285903226 0.018410725500029677 0.08338815590118903
          -0.015791319502341354 0.008107932746655402 -0.017513127559017055 -0.03533298919798939 0.01920456421534318 0.08754784048481934
          -0.01414688859683736 0.009201421946701326 0.0005488742327475682 -0.008032041614003506 0.005595385594391092 -0.019711460028405497
          -0.009150043431608423 0.0035784879980018973 -0.05343043202538594 -0.00898931356543151 0.0043515452972395135 -0.04164551498390272
          -0.0271840559781493 0.013052011913997996 0.028093068416507938 -0.039254219714667915 0.01884081121590452 0.08529596465707098
          -0.0251573944814807 0.013523404063696886 0.03397104570213339 -0.031564561308996694 0.019501984498345667 0.09014378338443411
          -0.020868881229312148 0.014266785282318582 0.04578025214474571 -0.008616646292896536 0.0050238444960359115 -0.0304058576515759
          -0.013024707997647749 0.009631252314333726 0.009161837673799165 -0.015069092431735228 0.008693648757475218 -0.008342780844857837
          -0.023052336231868312 0.013928328519803749 0.03986677361154598 -0.09630223558101313 0.04004391406621126 0.2832789852914428
          -0.07509167562294793 0.029385053436951285 0.19350039648801157 -0.08199346437099887 0.04078355021600179 0.2746216931691528
          -0.060966363622907874 0.03015021097226576 0.18617895427641346 -0.043387467967712 0.025000421004511404 0.13762817036825176
          -0.060529072091721405 0.023937322881948185 0.1409859826675242 -0.054439328661388536 0.024362059992098384 0.1392562150093974
          -0.08701606345271183 0.03475391716503898 0.2409313973626511 -0.08900292096330115 0.04044599473259913 0.2786943883873654
          -0.07931367928570517 0.0351646517504457 0.23595542687454457 -0.07527386580410629 0.04105658051641921 0.27106089963680513
          -0.06524212021526679 0.035777719013548176 0.22808672849443726 -0.04872546062005207 0.02471642603295279 0.13813694424297324
          -0.054613320936468694 0.030425665842912238 0.18360915207158612 -0.06779248185173428 0.029803340170278775 0.18947603574855526
          -0.0720556982065568 0.035505919033282096 0.23167387058514 -0.13104389271979985 0.061596341133153806 0.4457314208303188
          -0.11295471414327979 0.05068258432066146 0.36369797563202966 -0.11836238597987794 0.06208190909242285 0.4398018990098861
          -0.10044767672805724 0.05134673267867843 0.35759102035099205 -0.08487879875173288 0.04631775841860217 0.3131026703030039
          -0.10444888736036478 0.04532886337368109 0.32328667360452346 -0.09781137130722674 0.04571401052181628 0.3195958305926137
          -0.12181971592975815 0.056105076907152364 0.4045128913739614 -0.12465896087320799 0.061837943162312975 0.4426925031965017
          -0.11563939126218016 0.0564099847366732 0.4015948879971819 -0.11215416803980968 0.06232823892348344 0.43705960827047186
          -0.10331894986958458 0.05695358762213428 0.39610202461983735 -0.09128800843768277 0.046043642203456636 0.3162011628254406
          -0.0942271601068923 0.05161676078717386 0.354783045297348 -0.1066901947401864 0.051035340523174294 0.360562663795886
          -0.1094724692421223 0.05669282164166717 0.3987912657458072 -0.13104389271979985 0.061596341133153806 0.4457314208303188
          -0.13104389271979985 0.061596341133153806 0.4457314208303188 -0.11836238597987794 0.06208190909242285 0.4398018990098861
          -0.11836238597987794 0.06208190909242285 0.4398018990098861 -0.11215416803980968 0.06232823892348344 0.4370596082704719
          -0.13104389271979985 0.061596341133153806 0.4457314208303188 -0.12465896087320799 0.061837943162312975 0.4426925031965017
          -0.13104389271979985 0.061596341133153806 0.4457314208303188 -0.12465896087320799 0.061837943162312975 0.4426925031965017
          -0.124658960873208 0.061837943162312975 0.4426925031965017 -0.11215416803980968 0.06232823892348344 0.43705960827047186
          -0.11215416803980968 0.06232823892348344 0.4370596082704719 -0.11836238597987794 0.06208190909242285 0.4398018990098861
          -0.11215416803980968 0.06232823892348344 0.43705960827047186 -0.12465896087320799 0.061837943162312975 0.4426925031965017
          -0.11836238597987794 0.06208190909242285 0.4398018990098861 -0.0034453720216470586 -0.00342543631867292 -0.061213389693934125
          -0.0001906866072039884 -0.00010614111174001473 -0.015303347423483531 -0.0034453720216470586 -0.00342543631867292 -0.061213389693934125
          -0.0001906866072039884 -0.00010614111174001473 -0.015303347423483531 0.00028765654730289106 0.00034857370602910397 -0.003825836855870883
          0.000287656547302891 0.00034857370602910397 -0.003825836855870883 0.00028765654730289106 0.00034857370602910397 -0.003825836855870883
          -0.0014350294635206383 -0.0013641444533073561 -0.03443253170283794 -0.0034453720216470586 -0.00342543631867292 -0.061213389693934125
          -0.0014350294635206383 -0.0013641444533073561 -0.03443253170283794 -0.0034453720216470586 -0.00342543631867292 -0.061213389693934125
          -0.0014350294635206383 -0.0013641444533073561 -0.03443253170283795 0.000287656547302891 0.00034857370602910397 -0.003825836855870883
          -0.0001906866072039884 -0.00010614111174001473 -0.015303347423483531 -0.0001906866072039884 -0.00010614111174001473 -0.015303347423483531
          -0.0014350294635206383 -0.0013641444533073561 -0.03443253170283794 -0.007260227765950507 -0.0005363223319625196 -0.07965884498259873
          -0.0067924283667542265 -0.0051660939492599945 -0.09643144836306733 -0.007260227765950507 -0.0005363223319625196 -0.07965884498259873
          -0.0067924283667542265 -0.0051660939492599945 -0.09643144836306733 -0.0054788073124395036 -0.005092068789952026 -0.08532125178470096
          -0.0054788073124395036 -0.005092068789952026 -0.08532125178470096 -0.0054788073124395036 -0.0050920687899520265 -0.08532125178470096
          -0.007386235184591227 -0.003647511796596826 -0.09454397942903325 -0.007260227765950507 -0.0005363223319625196 -0.07965884498259873
          -0.007386235184591227 -0.003647511796596826 -0.09454397942903325 -0.007260227765950507 -0.0005363223319625196 -0.07965884498259873
          -0.007386235184591227 -0.003647511796596826 -0.09454397942903325 -0.0054788073124395036 -0.005092068789952026 -0.08532125178470096
          -0.0067924283667542265 -0.0051660939492599945 -0.09643144836306733 -0.0067924283667542265 -0.0051660939492599945 -0.09643144836306733
          -0.007386235184591227 -0.003647511796596826 -0.09454397942903325 -0.04332825285903226 0.018410725500029677 0.08338815590118903