<?xml version="1.0"?>
<VTKFile type="UnstructuredGrid" version="0.1" byte_order="LittleEndian" header_type="UInt32" compressor="vtkZLibDataCompressor">
  <UnstructuredGrid>
    <Piece NumberOfPoints="323" NumberOfCells="365">
      <PointData>
      </PointData>
      <CellData Scalars="displacement">
        <DataArray type="Float64" Name="element_gid" format="ascii" RangeMin="0" RangeMax="14">
          0 0 0 0 0 0
          0 0 0 0 0 0
          0 0 0 0 0 0
          0 0 0 0 0 0
          0 0 0 0 0 0
          0 0 0 1 1 1
          1 1 1 1 1 1
          1 1 1 1 1 1
          1 1 1 1 1 5
          5 5 5 5 5 5
          5 5 5 5 5 6
          6 6 6 6 6 6
          6 5 5 5 5 5
          5 5 5 2 2 2
          2 2 2 2 2 2
          2 2 2 2 2 2
          2 2 2 2 2 7
          7 7 7 7 7 7
          7 3 3 3 3 3
          3 3 3 3 3 3
          3 3 3 3 3 3
          3 3 3 8 8 8
          8 8 8 8 8 4
          4 4 4 4 4 4
          4 4 4 4 4 4
          4 4 4 4 4 4
          4 9 9 9 9 9
          9 9 9 4 4 4
          4 4 4 4 4 9
          9 9 9 9 9 9
          9 10 10 10 10 10
          10 10 10 10 10 10
          10 11 11 11 11 11
          11 11 11 10 10 10
          10 10 10 10 10 12
          12 12 12 12 12 12
          12 13 13 13 13 13
          13 13 13 14 14 14
          14 14 14 14 14 14
          14 14 14 14 14 14
          14 10 10 10 10 10
          10 10 10 11 11 11
          11 11 11 11 11 12
          12 12 12 12 12 12
          12 13 13 13 13 13
          13 13 13 14 14 14
          14 0 0 0 0 0
          0 0 0 1 1 1
          1 1 1 1 1 5
          5 5 5 5 5 5
          5 6 6 6 6 6
          6 6 6 2 2 2
          2 2 2 2 2 7
          7 7 7 7 7 7
          7 3 3 3 3 3
          3 3 3 8 8 8
          8 8 8 8 8 4
          4 4 4 9 9 9
          9 10 10 10 10 11
          11 11 11 12 12 12
          12 13 13 13 13
        </DataArray>
        <DataArray type="Float64" Name="element_owner" format="ascii" RangeMin="0" RangeMax="0">
          0 0 0 0 0 0
          0 0 0 0 0 0
          0 0 0 0 0 0
          0 0 0 0 0 0
          0 0 0 0 0 0
          0 0 0 0 0 0
          0 0 0 0 0 0
          0 0 0 0 0 0
          0 0 0 0 0 0
          0 0 0 0 0 0
          0 0 0 0 0 0
          0 0 0 0 0 0
          0 0 0 0 0 0
          0 0 0 0 0 0
          0 0 0 0 0 0
          0 0 0 0 0 0
          0 0 0 0 0 0
          0 0 0 0 0 0
          0 0 0 0 0 0
          0 0 0 0 0 0
          0 0 0 0 0 0
          0 0 0 0 0 0
          0 0 0 0 0 0
          0 0 0 0 0 0
          0 0 0 0 0 0
          0 0 0 0 0 0
          0 0 0 0 0 0
          0 0 0 0 0 0
          0 0 0 0 0 0
          0 0 0 0 0 0
          0 0 0 0 0 0
          0 0 0 0 0 0
          0 0 0 0 0 0
          0 0 0 0 0 0
          0 0 0 0 0 0
          0 0 0 0 0 0
          0 0 0 0 0 0
          0 0 0 0 0 0
          0 0 0 0 0 0
          0 0 0 0 0 0
          0 0 0 0 0 0
          0 0 0 0 0 0
          0 0 0 0 0 0
          0 0 0 0 0 0
          0 0 0 0 0 0
          0 0 0 0 0 0
          0 0 0 0 0 0
          0 0 0 0 0 0
          0 0 0 0 0 0
          0 0 0 0 0 0
          0 0 0 0 0 0
          0 0 0 0 0 0
          0 0 0 0 0 0
          0 0 0 0 0 0
          0 0 0 0 0 0
          0 0 0 0 0 0
          0 0 0 0 0 0
          0 0 0 0 0 0
          0 0 0 0 0 0
          0 0 0 0 0 0
          0 0 0 0 0
        </DataArray>
        <DataArray type="Int32" Name="material_id" format="ascii" RangeMin="1" RangeMax="1">
          1 1 1 1 1 1
          1 1 1 1 1 1
          1 1 1 1 1 1
          1 1 1 1 1 1
          1 1 1 1 1 1
          1 1 1 1 1 1
          1 1 1 1 1 1
          1 1 1 1 1 1
          1 1 1 1 1 1
          1 1 1 1 1 1
          1 1 1 1 1 1
          1 1 1 1 1 1
          1 1 1 1 1 1
          1 1 1 1 1 1
          1 1 1 1 1 1
          1 1 1 1 1 1
          1 1 1 1 1 1
          1 1 1 1 1 1
          1 1 1 1 1 1
          1 1 1 1 1 1
          1 1 1 1 1 1
          1 1 1 1 1 1
          1 1 1 1 1 1
          1 1 1 1 1 1
          1 1 1 1 1 1
          1 1 1 1 1 1
          1 1 1 1 1 1
          1 1 1 1 1 1
          1 1 1 1 1 1
          1 1 1 1 1 1
          1 1 1 1 1 1
          1 1 1 1 1 1
          1 1 1 1 1 1
          1 1 1 1 1 1
          1 1 1 1 1 1
          1 1 1 1 1 1
          1 1 1 1 1 1
          1 1 1 1 1 1
          1 1 1 1 1 1
          1 1 1 1 1 1
          1 1 1 1 1 1
          1 1 1 1 1 1
          1 1 1 1 1 1
          1 1 1 1 1 1
          1 1 1 1 1 1
          1 1 1 1 1 1
          1 1 1 1 1 1
          1 1 1 1 1 1
          1 1 1 1 1 1
          1 1 1 1 1 1
          1 1 1 1 1 1
          1 1 1 1 1 1
          1 1 1 1 1 1
          1 1 1 1 1 1
          1 1 1 1 1 1
          1 1 1 1 1 1
          1 1 1 1 1 1
          1 1 1 1 1 1
          1 1 1 1 1 1
          1 1 1 1 1 1
          1 1 1 1 1
        </DataArray>
        <DataArray type="Int64" IdType="1" Name="vtkOriginalCellIds" format="ascii" RangeMin="0" RangeMax="44">
          0 0 0 0 0 0
          0 0 0 0 0 0
          0 0 1 1 1 1
          1 1 1 1 1 1
          1 2 2 2 2 2
          2 2 2 3 3 3
          3 3 3 3 3 3
          3 3 3 4 4 4
          4 4 4 4 4 5
          5 5 5 5 5 5
          5 5 5 5 5 6
          6 6 6 6 6 6
          6 7 7 7 7 7
          7 7 7 8 8 8
          8 8 8 8 8 8
          8 8 8 9 9 9
          9 9 9 9 9 10
          10 10 10 10 10 10
          10 11 11 11 11 11
          11 11 11 11 11 11
          11 12 12 12 12 12
          12 12 12 13 13 13
          13 13 13 13 13 14
          14 14 14 14 14 14
          14 14 14 14 14 15
          15 15 15 15 15 15
          15 16 16 16 16 16
          16 16 16 17 17 17
          17 17 17 17 17 18
          18 18 18 18 18 18
          18 19 19 19 19 19
          19 19 19 19 19 19
          19 20 20 20 20 20
          20 20 20 21 21 21
          21 21 21 21 21 22
          22 22 22 22 22 22
          22 23 23 23 23 23
          23 23 23 24 24 24
          24 24 24 24 24 25
          25 25 25 25 25 25
          25 26 26 26 26 26
          26 26 26 27 27 27
          27 27 27 27 27 28
          28 28 28 28 28 28
          28 29 29 29 29 29
          29 29 29 30 30 30
          30 31 31 31 31 31
          31 31 31 32 32 32
          32 32 32 32 32 33
          33 33 33 33 33 33
          33 34 34 34 34 34
          34 34 34 35 35 35
          35 35 35 35 35 36
          36 36 36 36 36 36
          36 37 37 37 37 37
          37 37 37 38 38 38
          38 38 38 38 38 39
          39 39 39 40 40 40
          40 41 41 41 41 42
          42 42 42 43 43 43
          43 44 44 44 44
        </DataArray>
        <DataArray type="UInt8" Name="corner_cell_flag" format="ascii" RangeMin="0" RangeMax="1">
          0 0 0 1 1 0
          0 1 1 0 0 1
          1 0 0 0 1 1
          0 0 1 1 0 0
          1 1 0 0 1 1
          0 0 1 1 0 0
          1 1 0 0 1 1
          0 0 1 1 0 0
          1 1 0 0 1 1
          0 0 1 1 0 0
          1 1 0 0 1 1
          0 0 1 1 0 0
          1 1 0 0 1 1
          0 0 1 1 0 0
          1 1 0 0 1 1
          0 0 1 1 0 0
          1 1 0 0 1 1
          0 0 1 1 0 0
          1 1 0 0 1 1
          0 0 1 1 0 0
          1 1 0 0 1 1
          0 0 1 1 0 0
          1 1 0 0 1 1
          0 0 1 1 0 0
          1 1 0 0 1 1
          0 0 1 1 0 0
          1 1 0 0 1 1
          0 0 1 1 0 0
          1 1 0 0 1 1
          0 0 1 1 0 0
          1 1 0 0 1 1
          0 0 1 1 0 0
          1 1 0 0 1 1
          0 0 1 1 0 0
          1 1 0 0 1 1
          0 0 1 1 0 0
          1 1 0 0 1 1
          0 0 1 1 0 0
          1 1 0 0 1 1
          0 0 1 1 0 0
          1 1 0 0 1 1
          0 0 1 1 0 0
          1 1 0 0 1 1
          0 0 1 1 0 0
          1 1 0 0 1 1
          0 0 1 1 0 0
          1 1 0 0 1 1
          0 0 1 1 0 0
          1 1 0 0 1 1
          0 0 1 1 0 0
          1 1 0 0 1 1
          0 0 1 1 0 0
          1 1 0 0 1 1
          0 0 1 1 0 0
          1 1 0 0 1 1
          0 0 1 1 0 0
          1 1 0 0 1 1
          0 0 1 1 0 0
          1 1 0 0 1 1
          0 0 1 1 0 0
          1 1 0 0 1
        </DataArray>
        <DataArray type="Float64" Name="displacement" NumberOfComponents="3" format="ascii" RangeMin="0" RangeMax="0.4686609761603424">
          0 0 0 0 0 0
          0 0 0 0 0 0
          0 0 0 0 0 0
          0 0 0 0 0 0
          0 0 0 0 0 0
          0 0 0 0 0 0
          0 0 0 0 0 0
          0.00024885764964758725 -0.00014819954050201783 0.001303734623394223 0.00052707704961978 -0.000022616371672129368 0.0033897100208249795
          0.0009015658497695167 0.0002952949650131023 0.006518673116971114 0.001112877599888771 0.0005023326753195539 0.008343901589723026
          0.001112877599888771 0.0005023326753195539 0.008343901589723026 0.001112877599888771 0.0005023326753195539 0.008343901589723026
          0.001112877599888771 0.0005023326753195539 0.008343901589723026 0.0009015658497695167 0.0002952949650131023 0.006518673116971114
          0.00052707704961978 -0.000022616371672129368 0.0033897100208249795 0.00024885764964758725 -0.00014819954050201783 0.001303734623394223
          0.00006690764985293842 -0.00008145454147656314 0.0002607469246788446 -0.0000844479262177493 -0.00006431023188086982 -0.00026093584644267827
          -0.0002398189438466621 -0.0001732286905936354 -0.0013046792322133913 -0.0003681402918624034 -0.00024274313920845286 -0.003392166003754818
          -0.0004694119702649732 -0.0002728535777253222 -0.006523396161066957 -0.0003047339374540408 -0.00017942344625057377 -0.005938885990796008
          0.00010884825135383648 0.000017121557175922934 -0.0013329838073123518 0.0005153889993417706 0.00021221917462062887 0.0028404783616598314
          0.0009148883065097614 0.00040586940608354407 0.006581500516120541 0.001290506506966499 0.0008914763202244977 0.011100677870368423
          0.0015302639349501308 0.001937811395303697 0.017955832198088488 0.0015390205905901136 0.0035202420409215195 0.027494190058667108
          0.0013167764738864478 0.005638768257077965 0.03971575145210428 0.0011479042224487026 0.006832055257790844 0.0464973330320375
          0.0011479042224487026 0.006832055257790844 0.0464973330320375 0.0011479042224487026 0.006832055257790844 0.0464973330320375
          0.0011479042224487026 0.006832055257790844 0.0464973330320375 0.0013167764738864478 0.005638768257077965 0.03971575145210428
          0.0015390205905901136 0.0035202420409215195 0.027494190058667108 0.0015302639349501308 0.001937811395303697 0.017955832198088488
          0.001290506506966499 0.0008914763202244977 0.011100677870368423 -0.0006013695464242728 -0.00010911789865955957 -0.009256253824026658
          -0.0008794841550801045 0.0005573481129582019 -0.008706507232387622 -0.0013614913636023692 0.0018809865646126451 -0.0034320405060267022
          -0.002047391171991067 0.0038617974563037705 0.006567146355056102 -0.002089100260135025 0.00528064439098886 0.017597969966906817
          -0.001320380101395632 0.005784138833232031 0.026877154598141897 -0.0004230754892454502 0.006238028644640117 0.035314507901331775
          0.0006028135763155203 0.006642313825213116 0.042910029876476456 0 0 0
          0 0 0 0 0 0
          0 0 0 -0.00011875290593345856 0.00006481353448258431 -0.0009704664995229434
          -0.0004392980361940781 0.00004413849827538366 -0.004852332497614717 -0.0009259218032421025 -0.0002771407482765555 -0.012616064493798264
          -0.0015786242070775318 -0.0008990242051732332 -0.024261662488073585 -0.0017907143126492829 -0.0011390699340408832 -0.02797759173742051
          -0.0014635724989147687 -0.0008604189318393443 -0.021982394999454896 -0.0011052700798824854 -0.0006086541339022226 -0.016306149774812775
          -0.0007158070555524335 -0.0003837755402295179 -0.010948856063494147 -0.0023553936174687284 -0.0015037693135093169 -0.036828004653484306
          -0.0031722067739524164 -0.001455890955474142 -0.04439284733611769 -0.003987052046296957 -0.0004376465721623765 -0.04399506870901734
          -0.004799929434502352 0.0015509638364259795 -0.03563466877218329 -0.00484117912457075 0.003067962402629784 -0.024025377802648077
          -0.004124536252953214 0.003627151165510356 -0.01325648579643417 -0.003433395770098654 0.004184310031790156 -0.0027035524725314694
          -0.0027677576760070715 0.004739439001469183 0.007633422169060028 0 0 0
          0 0 0 0 0 0
          0 0 0 0 0 0
          0 0 0 0 0 0
          0 0 0 0.0007059145235459572 0.008294035662680697 0.054833349730610416
          -0.0006087993830177114 0.011487335495545037 0.0732726515986064 -0.002784982307097736 0.01521931337457865 0.09524649040830266
          -0.005822634248694117 0.019489969299781536 0.12075486615969919 -0.007556827473871396 0.021759966773925297 0.1343926882708225
          -0.007556827473871396 0.021759966773925297 0.1343926882708225 -0.007556827473871396 0.021759966773925297 0.1343926882708225
          -0.007556827473871396 0.021759966773925297 0.1343926882708225 -0.005822634248694117 0.019489969299781536 0.12075486615969919
          -0.002784982307097736 0.01521931337457865 0.09524649040830266 -0.0006087993830177114 0.011487335495545037 0.07327265159860641
          0.0007059145235459572 0.008294035662680697 0.05483334973061042 -0.0032229355104224327 0.006495129131591653 0.02137015922226288
          -0.0054596282392489395 0.009771678277596445 0.04113520983839782 -0.009043221288646824 0.013686793237878223 0.06594140407486303
          -0.013973714658616087 0.01824047401243699 0.09578874193165848 -0.015719821757369114 0.020813557701745082 0.11504797457364041
          -0.013543763956380503 0.02108594440974435 0.12101667761044956 -0.011239049218912462 0.02135669713990427 0.12662167548687048
          -0.00880567754496499 0.021625815892224846 0.13186296820290322 -0.00622068784316134 0.004427014569672179 -0.019513067795362174
          -0.009469025081459408 0.008024654226338735 0.003966893681952717 -0.0151547900539893 0.012260957105806903 0.034603795390014756
          -0.023277982760751013 0.01713592320807668 0.07239763732882393 -0.026272563016642526 0.01983678888642923 0.09484108790273393
          -0.023106294839917267 0.02005373496415004 0.09875822258259406 -0.020312982433930704 0.020289705911243454 0.10348044843489992
          -0.017892625798682827 0.02054470172770946 0.10900776545965155 -0.009727149442505216 0.02420352696339859 0.14946244908150186
          -0.014509316357927765 0.029168433749919606 0.18069857963112243 -0.020174529229660135 0.034288913351589484 0.21412792803726685
          -0.02672278805770232 0.039564965768408226 0.24975049429993512 -0.030217678960800867 0.042241885180604816 0.2681100818954002
          -0.030217678960800867 0.042241885180604816 0.2681100818954002 -0.030217678960800867 0.042241885180604816 0.2681100818954002
          -0.030217678960800867 0.042241885180604816 0.2681100818954002 -0.02672278805770232 0.039564965768408226 0.24975049429993512
          -0.020174529229660135 0.034288913351589484 0.21412792803726685 -0.014509316357927765 0.029168433749919606 0.18069857963112243
          -0.009727149442505216 0.02420352696339859 0.14946244908150186 -0.020088474447863356 0.023283389871507028 0.12980267789413136
          -0.027062232853801892 0.028516879355556937 0.16623412093297601 -0.03473235597513833 0.03379161173482101 0.2042085255335397
          -0.043098843811872664 0.03910758700929924 0.24372589169582237 -0.045264040167709414 0.041820131867777235 0.2642735933871758
          -0.04090464685017886 0.04191796051521293 0.26516461157421956 -0.036595021863106744 0.04203446046777866 0.26622455325622124
          -0.032335165206493086 0.04216963172547443 0.2674534184331809 -0.03318714337602908 0.0224735584858431 0.11540684337057411
          -0.04357935224839254 0.027921874844496215 0.1597482612596531 -0.05380314955212593 0.033304878236731075 0.20348031486825485
          -0.06385853528722926 0.038622568662547666 0.2466030041963794 -0.06581894761578369 0.04134713907284408 0.2668352270195245
          -0.060003048557202926 0.04149911030287519 0.2649210449398833 -0.054656061968819405 0.04162681023699781 0.26388562178415104
          -0.04977798785063313 0.04173023887521195 0.26372895755232784 -0.03400574098796018 0.04495348037581151 0.28716097183054634
          -0.04172668431224544 0.050368235924670685 0.3255487474519388 -0.04973726617646393 0.05576612179042142 0.36450851457553163
          -0.05803748658061568 0.06114713797306371 0.40404027320132485 -0.06226000641767486 0.06383342864360775 0.42394915038977155
          -0.06226000641767486 0.06383342864360775 0.42394915038977155 -0.06226000641767486 0.06383342864360775 0.42394915038977155
          -0.06226000641767486 0.06383342864360775 0.42394915038977155 -0.05803748658061568 0.06114713797306371 0.40404027320132485
          -0.04973726617646393 0.05576612179042142 0.3645085145755316 -0.04172668431224544 0.050368235924670685 0.3255487474519388
          -0.03400574098796018 0.04495348037581151 0.28716097183054634 -0.05196760393058411 0.04445719968951725 0.28436723063356995
          -0.06095045146443108 0.04982523879652629 0.3252945647742743 -0.06985329397999276 0.05520409884085198 0.3660889053316815
          -0.07867613147726918 0.06059377982249431 0.4067502523057915 -0.0803894270675374 0.06334851155573909 0.4265049148447932
          -0.07508463598300073 0.06346993482452862 0.4255230208578836 -0.06988275034458544 0.0636054605985194 0.42474838910607093
          -0.06478377015229149 0.06375508887771142 0.42418101958935517 -0.07371393375600024 0.043900722400552136 0.2891561804078131
          -0.08330619356303434 0.04919089200795672 0.3312195458301288 -0.0926037390106293 0.05451885376336755 0.37283295162711305
          -0.1016065700987851 0.05988460766678463 0.41399639779876574 -0.10303821492163528 0.06269296081430692 0.43328888721561604
          -0.09712952890633914 0.06290719776706899 0.4311017327336555 -0.09138783938592236 0.06308579599010647 0.42924724433834627
          -0.08581314636038495 0.06322875548341934 0.42772542202968833 -0.08306754897133607 0.06329132554764463 0.4270476773970222
          -0.08306754897133607 0.06329132554764463 0.4270476773970222 -0.08306754897133607 0.06329132554764463 0.4270476773970222
          -0.08306754897133607 0.06329132554764463 0.4270476773970222 -0.0803894270675374 0.06334851155573909 0.4265049148447932
          -0.07508463598300073 0.06346993482452862 0.4255230208578836 -0.06988275034458544 0.0636054605985194 0.42474838910607093
          -0.06478377015229149 0.06375508887771142 0.42418101958935517 -0.10603430705300321 0.06257693265549473 0.43446563097825913
          -0.10603430705300321 0.06257693265549473 0.43446563097825913 -0.10603430705300321 0.06257693265549473 0.43446563097825913
          -0.10603430705300321 0.06257693265549473 0.43446563097825913 -0.10303821492163528 0.06269296081430692 0.43328888721561604
          -0.09712952890633914 0.06290719776706899 0.4311017327336555 -0.09138783938592236 0.06308579599010647 0.42924724433834627
          -0.08581314636038495 0.06322875548341934 0.42772542202968833 0 0 0
          0 0 0 0 0 0
          0 0 0 0.0001438282736514455 0.00017428685301455198 -0.0019129184279354414
          0.00004848497004945131 0.00012121629714454462 -0.009564592139677208 -0.0008128580353623134 -0.0007351427825236854 -0.02486793956316074
          -0.0024402007425838486 -0.0023947903859901382 -0.047822960698386034 -0.0032284856412425657 -0.0030718179171208993 -0.056984031789280055
          -0.002814397387915329 -0.0024219667706794406 -0.048831682773974636 -0.0024396781495515884 -0.0018868869375631499 -0.04129206734667465
          -0.0021043279261513453 -0.0014665784177720267 -0.0343651855073801 -0.004462089667043281 -0.004258752554312473 -0.07326732073931755
          -0.0061356178395968654 -0.00512908136960601 -0.09087635007388414 -0.0070893317756727265 -0.00440680287292841 -0.09548771389605029
          -0.007323231475270867 -0.0020919170642796727 -0.08710141220581599 -0.007089142824260023 -0.00001961432448637423 -0.07279800084879998
          -0.006689833601307689 0.0009463449253986384 -0.05946728937821283 -0.006176245699212627 0.0017773906451490945 -0.046918531501646356
          -0.005548379117974839 0.0024735228347649942 -0.035151727219100565 0 0 0
          0 0 0 0 0 0
          0 0 0 0 0 0
          0 0 0 0 0 0
          0 0 0 -0.008205135598779466 0.0015210828330196888 -0.06654463850399234
          -0.012470681466974888 0.00584321037232865 -0.0354717797922015 -0.02148768774024533 0.0105799723303267 0.005289970428745442
          -0.03525615441859078 0.015731368707013835 0.055740612158848485 -0.04129123628685009 0.018625768357967098 0.08434206027913001
          -0.03729360445632865 0.01902268771562385 0.08642190257094516 -0.033448775253493046 0.019353274356844426 0.08884581193462673
          -0.029756748678343263 0.01961752828162882 0.09161378837017471 -0.051928662475376836 0.021174024190988933 0.11218706928435662
          -0.06781037385733467 0.026661188159449734 0.1672431895777679 -0.08105386953782988 0.03206948530099513 0.21721589692533133
          -0.09165914951686248 0.03739891561562512 0.26210519132704696 -0.09265257827215714 0.040244954399405196 0.2809866868394041
          -0.08549819266715 0.04061477247430046 0.27665804077825906 -0.07863366508755258 0.0409200653662105 0.27284129640297894
          -0.07205899553336484 0.04116083307513531 0.2695364537135637 -0.10037556147068896 0.04268638871994618 0.3032828294479831
          -0.10870180075182229 0.04800572384717128 0.34349232461827656 -0.11738721503651897 0.053393830613906915 0.38410543350299553
          -0.12643180432477902 0.05885070902015309 0.4251221561021401 -0.1278514267965039 0.06171714214773339 0.4442119620134103
          -0.12151067342654297 0.06195992612736791 0.44124720110319393 -0.11525827700984381 0.062205074007953144 0.43843075364017897
          -0.10909423754640644 0.06245258578948908 0.43576261962436547 -0.13104389271979985 0.061596341133153806 0.4457314208303188
          -0.13104389271979985 0.061596341133153806 0.4457314208303188 -0.13104389271979985 0.061596341133153806 0.4457314208303188
          -0.13104389271979985 0.061596341133153806 0.4457314208303188 -0.1278514267965039 0.06171714214773339 0.4442119620134103
          -0.12151067342654297 0.06195992612736791 0.44124720110319393 -0.11525827700984381 0.062205074007953144 0.43843075364017897
          -0.10909423754640644 0.06245258578948908 0.43576261962436547 0.0001438282736514455 0.00017428685301455198 -0.0019129184279354414
          0.00004848497004945131 0.00012121629714454462 -0.009564592139677208 -0.0008128580353623134 -0.0007351427825236854 -0.02486793956316074
          -0.0024402007425838486 -0.0023947903859901382 -0.047822960698386034 -0.0034453720216470586 -0.00342543631867292 -0.061213389693934125
          -0.0034453720216470586 -0.00342543631867292 -0.061213389693934125 -0.0034453720216470586 -0.00342543631867292 -0.061213389693934125
          -0.0034453720216470586 -0.00342543631867292 -0.061213389693934125 -0.004462089667043281 -0.004258752554312473 -0.07326732073931755
          -0.0061356178395968654 -0.00512908136960601 -0.09087635007388414 -0.0070893317756727265 -0.00440680287292841 -0.09548771389605029
          -0.007323231475270867 -0.0020919170642796727 -0.08710141220581599 -0.007260227765950507 -0.0005363223319625196 -0.07965884498259873
          -0.007260227765950507 -0.0005363223319625196 -0.07965884498259873 -0.007260227765950507 -0.0005363223319625196 -0.07965884498259873
          -0.007260227765950507 -0.0005363223319625196 -0.07965884498259873 -0.008205135598779466 0.0015210828330196888 -0.06654463850399234
          -0.012470681466974888 0.00584321037232865 -0.0354717797922015 -0.02148768774024533 0.0105799723303267 0.005289970428745442
          -0.03525615441859078 0.015731368707013835 0.055740612158848485 -0.04332825285903226 0.018410725500029677 0.08338815590118903
          -0.04332825285903226 0.018410725500029677 0.08338815590118903 -0.04332825285903226 0.018410725500029677 0.08338815590118903
          -0.04332825285903226 0.018410725500029677 0.08338815590118903 -0.051928662475376836 0.021174024190988933 0.11218706928435662
          -0.06781037385733467 0.026661188159449734 0.1672431895777679 -0.08105386953782988 0.03206948530099513 0.21721589692533133
          -0.09165914951686248 0.03739891561562512 0.26210519132704696 -0.09630223558101313 0.04004391406621126 0.2832789852914428
          -0.09630223558101313 0.04004391406621126 0.2832789852914428 -0.09630223558101313 0.04004391406621126 0.2832789852914428
          -0.09630223558101313 0.04004391406621126 0.2832789852914428 -0.10037556147068896 0.04268638871994618 0.3032828294479831
          -0.10870180075182229 0.04800572384717128 0.34349232461827656 -0.11738721503651897 0.053393830613906915 0.38410543350299553
          -0.12643180432477902 0.05885070902015309 0.4251221561021401 0.0009148883065097614 0.00040586940608354407 0.00658150051612054
          0.0005153889993417706 0.00021221917462062887 0.002840478361659831 0.00010884825135383648 0.000017121557175922934 -0.0013329838073123513
          -0.0003047339374540408 -0.00017942344625057377 -0.005938885990796007 -0.0004694119702649732 -0.0002728535777253222 -0.006523396161066957
          -0.0003681402918624034 -0.00024274313920845286 -0.003392166003754818 -0.0002398189438466621 -0.0001732286905936354 -0.0013046792322133913
          -0.0000844479262177493 -0.00006431023188086982 -0.00026093584644267827 0.0006028135763155203 0.006642313825213116 0.042910029876476456
          -0.0004230754892454502 0.006238028644640117 0.035314507901331775 -0.001320380101395632 0.005784138833232031 0.026877154598141897
          -0.002089100260135025 0.00528064439098886 0.017597969966906817 -0.002047391171991067 0.0038617974563037705 0.006567146355056102
          -0.0013614913636023692 0.0018809865646126451 -0.0034320405060267022 -0.0008794841550801045 0.0005573481129582019 -0.008706507232387622
          -0.0006013695464242728 -0.00010911789865955957 -0.009256253824026658 -0.0007158070555524335 -0.0003837755402295179 -0.010948856063494147
          -0.0011052700798824854 -0.0006086541339022226 -0.016306149774812775 -0.0014635724989147687 -0.0008604189318393443 -0.021982394999454896
          -0.0017907143126492829 -0.0011390699340408832 -0.02797759173742051 -0.0015786242070775318 -0.0008990242051732332 -0.024261662488073585
          -0.0009259218032421025 -0.0002771407482765555 -0.012616064493798264 -0.0004392980361940781 0.00004413849827538366 -0.004852332497614717
          -0.00011875290593345856 0.00006481353448258431 -0.0009704664995229434 -0.0027677576760070715 0.004739439001469183 0.007633422169060028
          -0.003433395770098654 0.004184310031790156 -0.0027035524725314694 -0.004124536252953214 0.003627151165510356 -0.01325648579643417
          -0.00484117912457075 0.003067962402629784 -0.024025377802648077 -0.004799929434502352 0.0015509638364259795 -0.035634668772183284
          -0.003987052046296957 -0.0004376465721623765 -0.04399506870901734 -0.0031722067739524164 -0.001455890955474142 -0.04439284733611769
          -0.0023553936174687284 -0.0015037693135093169 -0.036828004653484306 -0.00880567754496499 0.021625815892224846 0.13186296820290322
          -0.011239049218912462 0.02135669713990427 0.12662167548687048 -0.013543763956380503 0.02108594440974435 0.12101667761044956
          -0.015719821757369114 0.020813557701745082 0.11504797457364041 -0.013973714658616087 0.01824047401243699 0.09578874193165848
          -0.009043221288646822 0.013686793237878223 0.06594140407486303 -0.0054596282392489395 0.009771678277596445 0.04113520983839782
          -0.0032229355104224327 0.006495129131591653 0.02137015922226288 -0.017892625798682827 0.02054470172770946 0.10900776545965155
          -0.020312982433930704 0.020289705911243454 0.10348044843489992 -0.023106294839917267 0.02005373496415004 0.09875822258259406
          -0.026272563016642526 0.01983678888642923 0.09484108790273393 -0.023277982760751013 0.01713592320807668 0.07239763732882393
          -0.0151547900539893 0.012260957105806903 0.03460379539001475 -0.009469025081459408 0.008024654226338735 0.003966893681952717
          -0.00622068784316134 0.004427014569672179 -0.019513067795362174 -0.032335165206493086 0.04216963172547443 0.2674534184331809
          -0.036595021863106744 0.04203446046777866 0.26622455325622124 -0.04090464685017886 0.04191796051521293 0.26516461157421956
          -0.045264040167709414 0.041820131867777235 0.2642735933871758 -0.043098843811872664 0.03910758700929924 0.24372589169582237
          -0.03473235597513833 0.03379161173482101 0.2042085255335397 -0.027062232853801892 0.028516879355556937 0.16623412093297601
          -0.020088474447863356 0.023283389871507028 0.12980267789413136 -0.04977798785063313 0.04173023887521195 0.26372895755232784
          -0.054656061968819405 0.04162681023699781 0.26388562178415104 -0.060003048557202926 0.04149911030287519 0.2649210449398833
          -0.06581894761578369 0.04134713907284408 0.2668352270195245 -0.06385853528722926 0.038622568662547666 0.2466030041963794
          -0.05380314955212593 0.033304878236731075 0.20348031486825485 -0.04357935224839254 0.027921874844496215 0.1597482612596531
          -0.03318714337602908 0.0224735584858431 0.11540684337057411 -0.07867613147726918 0.06059377982249431 0.4067502523057915
          -0.06985329397999276 0.05520409884085198 0.3660889053316815 -0.06095045146443108 0.04982523879652629 0.3252945647742743
          -0.05196760393058411 0.04445719968951725 0.28436723063356995 -0.1016065700987851 0.05988460766678463 0.41399639779876574
          -0.0926037390106293 0.05451885376336755 0.37283295162711305 -0.08330619356303434 0.04919089200795672 0.3312195458301288
          -0.07371393375600024 0.043900722400552136 0.2891561804078131 -0.0021043279261513453 -0.0014665784177720267 -0.0343651855073801
          -0.0024396781495515884 -0.0018868869375631499 -0.04129206734667465 -0.0028143973879153285 -0.0024219667706794406 -0.048831682773974636