<?xml version="1.0"?>
<VTKFile type="UnstructuredGrid" version="0.1" byte_order="LittleEndian" header_type="UInt32" compressor="vtkZLibDataCompressor">
  <UnstructuredGrid>
    <FieldData>
      <DataArray type="Float64" Name="TIME" NumberOfTuples="1" format="ascii" RangeMin="0.9999999999999999" RangeMax="0.9999999999999999">
        0.9999999999999999
      </DataArray>
      <DataArray type="Int64" IdType="1" Name="PointMergeMap" NumberOfTuples="135" format="ascii" RangeMin="0" RangeMax="76">
        0 1 2 3 4 5
        6 7 8 1 9 10
        2 11 12 13 5 14
        9 15 16 10 17 18
        19 12 20 15 21 22
        16 23 24 25 18 26
        21 27 28 22 29 30
        31 24 32 3 2 33
        34 6 35 36 37 38
        2 10 39 33 13 40
        41 35 42 10 16 43
        39 19 44 45 40 46
        16 22 47 43 25 48
        49 44 50 22 28 51
        47 31 52 53 48 54
        34 33 55 56 36 57
        58 59 60 33 39 61
        55 41 62 63 57 64
        39 43 65 61 45 66
        67 62 68 43 47 69
        65 49 70 71 66 72
        47 51 73 69 53 74
        75 70 76
      </DataArray>
    </FieldData>
    <Piece NumberOfPoints="1025" NumberOfCells="1920">
      <PointData Scalars="edge_flag">
        <DataArray type="Float64" Name="displacement" NumberOfComponents="3" format="ascii" RangeMin="0" RangeMax="0.4686609761603424">
          0 0 0 0.001112877599888771 0.0005023326753195539 0.008343901589723026
          -0.0005132853920629653 -0.0002780577944592698 -0.008349947086165705 0 0 0
          0.0003638999995892976 -0.0001334899980509094 0.0020859753974307566 0.0003138789855527893 0.00011503221239372359 0.0008618572808016083
          -0.00031074203525782566 -0.00021783691742553117 -0.002087486771541426 0 0 0
          0.00004345789225413557 -0.00022882762697298755 0.00021546432020040206 0.00013381529970587683 -0.00016290908295312628 0.0005214938493576892
          0.0000663116284415184 -0.000184513158221422 0.00030119371515737847 0 0 0
          0.0006902540996502624 0.00008825725470665066 0.004693444644219202 0.0007168990131307518 0.00030940613684753414 0.004819099442518054
          0.0004247611350068943 -0.000029810089797654915 0.0027107434364164055 -0.00009618248284511634 -0.00008078909804187772 -0.003527824895426311
          -0.0004255385484669812 -0.00026764936099137455 -0.004696845235968209 -0.0001331351890517275 -0.00020776339764666752 -0.0019844015036773
          -0.0001688958524354986 -0.00012862046376173965 -0.0005218716928853565 0 0 0
          -0.00008504394762916931 -0.00016736884862572868 -0.0002204890559641445 0.00020789867344381648 -0.0001944498548206403 0.0012047748606295134
          -0.000006641454003496987 -0.00018599974677895612 0.000053866080050100516 0.00015029803877289767 -0.00012848364058209432 0.00048479472045090464
          -0.00012942234397974515 -0.0002366233145079512 -0.0008819562238565777 0.000054873974830745424 -0.00010549556245848104 0.00013037346233942234
          0.00003968919680382455 -0.00011125776894297103 0.00010368055496772614 0 0 0
          0.00023682397462539422 -0.00017224056148393573 0.0011733611610548007 0.0001831663310023656 -0.00019490411244944494 0.0009331249947095355
          0.00010074464047127974 -0.00017622580642611934 0.00041472221987090476 0.000023746387150661735 -0.00011407863681348645 0.00007529842878934462
          0.000007045545871256992 -0.00011395816607002733 0.00004522708380427761 0 0 0
          0.000515043374597587 -0.000046657392654047254 0.003259336558485557 0.0005586288837774069 0.000026799358239514624 0.003732499978838142
          0.00041210845265542915 -0.00009339153011662795 0.002592013874193154 0.0008895321747473237 0.0002712539440311844 0.006388299654631692
          0.0009157684866122543 0.00040605032933126785 0.0066355555179344735 0.0007265155617630153 0.00019327997805547993 0.005080347193418581
          0.0005614206469987255 0.00011797596582216414 0.0036896230106778856 0.0005162691794442635 0.00021240009786835273 0.0028945333634737653
          0.00039424743045445455 0.000045341907331237214 0.0022161271064096016 0.00010972843145632937 0.000017302480423646782 -0.0012789288054984172
          -0.00011974202985824612 -0.0001565405456872109 -0.00270099093556077 0.00005366609202596873 -0.00009191634842345032 -0.0009791798667097256
          -0.00030385375735154794 -0.0001792425230028499 -0.005884830988982074 -0.0004727931789666197 -0.0002777790789875657 -0.006392928237845617
          -0.00029522845352244223 -0.0002184947892085827 -0.0045055737259394 -0.0002782156023105258 -0.00024013060353400431 -0.0033102174313024164
          -0.0003715215005640499 -0.0002476686404706964 -0.0032616980805334783 -0.0002528152037157985 -0.00024414996597911477 -0.0022987621050711226
          -0.00024320015254830857 -0.00017815419185587892 -0.001174211308992052 -0.00012628872363475185 -0.00015050934203257935 -0.0003678019368113796
          -0.00017685176437791153 -0.0001993393352284023 -0.0008275543578256042 -0.00008782913491939574 -0.00006923573314311334 -0.00013046792322133908
          0 0 0 -0.00006733813550878132 -0.00008406289695644524 -0.00009195048420284495
          -0.00004760516772440885 -0.0000959487221558026 -0.00005512226399103611 0 0 0
          -0.000028630231566278297 -0.0001048932087411854 -0.000019983262585912776 0.00028695426839708203 -0.0001672926870129478 0.0016588888794836184
          0.00012769572387256997 -0.0002113035642238066 0.0006776858591041015 0.00012673321472950102 -0.00021496150147398688 0.0007236333408684413
          0.000011315619092678097 -0.0002253101701990874 0.00012119868011272616 0.00007041215323600749 -0.00022143891680702075 0.0004070437542384983
          0.000030516263616592823 -0.00018777113833903425 0.00018090833521711033 -0.000010413327034389686 -0.00011089635671259364 0.000013466520012525129
          0.0003069204771552579 -0.00013395203001192308 0.001882460719733615 0.00022499591213020228 -0.000024622197417300947 0.0006598594806137314
          0.00028865085333872455 -0.00008157108940485789 0.001628175016953993 0.00019947944809707333 -0.00016833889233993258 0.0011306770951069398
          0.00008978536548087542 -0.00019655211710065652 0.0003366630003131282 0.000009702691309413653 -0.00017054774332936419 -0.0007193974530928598
          -0.00021902725773826042 -0.00023055287654391414 -0.0014712077472455185 -0.0001363619604255605 -0.00023445765392024763 -0.0013780565997759029
          -0.00002216177069333586 -0.00021859170429409485 -0.0004995815646478192 -0.00004192729398227981 -0.00023604823131764233 -0.0003197322013746043
          -0.00011231633971428142 -0.0002142603794097782 -0.000496100375919325 -0.00004516152441875103 -0.00017919898354118758 -0.0000799330503436511
          -0.00004959387855741821 -0.00022291732440000655 -0.00017984936327321497 0.0011479042224487026 0.006832055257790844 0.0464973330320375
          -0.002441314226152024 0.005016496012158504 0.012747919819277975 0.0015923924558560343 0.0025950028254779524 0.022054210245163162
          -0.0009038739086732382 0.006023484896644845 0.03130628908174814 -0.0010695146093746286 0.001054874228776253 -0.007250453902887633
          0.00020139210890673853 0.0019072471697247847 0.00890389387143905 0.001468135414044227 0.0012806199651294414 0.013857454151013818
          0.0009230321977496611 0.0010132323709264937 0.008782738438362164 0.0014856487253241929 0.0044454812563650865 0.03293416987217106
          0.000057722930182337826 0.006452572392635388 0.03932272672091541 0.0005934441562754542 0.00408481549882042 0.026034552077560846
          -0.0017368862941180257 0.005544792769819217 0.022448020114535658 -0.0016534681178301098 0.002707098900449037 0.0003863728908342287
          -0.0009761142653016971 0.0032156243208623955 0.009760653586892432 -0.0006894537007855804 0.000059821997140150664 -0.01016256056188761
          -0.00015576235966524254 0.00040283338693184817 -0.003227268918088551 0.0008818805787978954 0.0022717021582507892 0.015854555983376428
          0.0003817329398465047 0.0007206368448606293 0.003087830748661374 -0.00022714350726650912 0.00367486318698619 0.01831004664913464
          -0.00044907295381743607 0.0015016378598999393 0.0012022239093510303 0.0013193816035094552 0.0008244643739071698 0.010765277428761103
          0.0010855714668742222 0.0007100146453790088 0.00865551615114745 0.0015591390314930868 0.0018707994489863692 0.017620431756481172
          0.0012443790192836412 0.001726237871726738 0.014861867939949525 0.0011951083110980179 0.001150077159510832 0.011397620291819132
          0.0008508762058865408 0.0005919888097313469 0.006412396621793839 0.0006152958205464108 0.0004703868669641841 0.004035918840700274
          0.0015678956871330698 0.0034532300946041915 0.027158789617059788 0.0010305943276114765 0.004271309196878949 0.02958747192909295
          0.0011621220275403704 0.003286853890410796 0.02395679375858643 0.0013456515704294038 0.0055717563107606375 0.03938035101049696
          0.0005867405196391716 0.006648514404067501 0.04301525879248211 0.0008388004916444102 0.005391862701431185 0.03594029360705818
          0.0003564941436752305 0.005199363501572236 0.03229011708059187 -0.00043914854592179875 0.006244229223494502 0.03541973681733743
          -0.00010126747347813585 0.004994258711183796 0.02842982143109802 -0.0013364531580719805 0.005790339412086417 0.026982383514147546
          -0.001327283940043353 0.0043033107968415115 0.015588219744451317 -0.0009431565153374275 0.004546232358818433 0.020078872763027746
          -0.0021051733168113733 0.005286844969843246 0.017703198882912465 -0.002021904597007763 0.0037796509012991853 0.005976556338215867
          -0.001686866633933465 0.004047783644335095 0.010887447602847355 -0.00132374330475425 0.0029675224299419126 0.005176624193090331
          -0.001336004788619065 0.0017988400096080601 -0.004022630522866937 -0.0010158033292737307 0.0020460613266636975 0.0005707286536413882
          -0.0008539975800968004 0.0004752015579536166 -0.009297097249227858 -0.00042308352502433763 0.00023447868351886403 -0.006617390742856938
          -0.0005654734394087742 0.0006795394534521735 -0.005326278814332246 -0.0005758829714409687 -0.00019126445366414484 -0.009846843840866893
          -0.00033587696433859556 -0.0000517819752994771 -0.0068035748010735475 -0.00009675608158867105 0.00008412439594568955 -0.003893664013020159
          0.0001414796768088049 0.00021645466007135533 -0.0011171114767067258 0.001233383591431092 0.002438496782026726 0.019048259095538624
          0.0009333669887201127 0.0015731368204329743 0.011930124892223027 0.0005378834179564442 0.002094618954150142 0.012473100908676569
          0.0003225868725308068 0.0012413162957430508 0.005547101103185474 0.0006261029398025011 0.0014114962951050788 0.008825202613301676
          0.0006519070739991567 0.000870085599376426 0.006012808590642911 0.0003788303108538322 0.0003452088170775201 0.0015260828078667524
          0.0007685729679830092 0.003108928384379938 0.020556031711822367 -0.0005344843598156885 0.004776548330265862 0.024359406658576648
          0.00017419821131612565 0.0038860001621895007 0.022275410317574743 0.00038724850846098564 0.002919453576511616 0.016956503476767592
          0.000018148648974299894 0.002718429466805831 0.013158209053422106 -0.0006105809994724501 0.003451404573210488 0.014138461072240534
          -0.0007630467074919052 0.0012834003345004513 -0.0029302390154994713 -0.0006833772698930583 0.002281733341881872 0.004965321641859004
          -0.000338726610477048 0.002505856055262583 0.009161148441785909 -0.0001275933483512216 0.0017095868049747172 0.005146934871663871
          -0.0002732013170748309 0.0008753378749165982 -0.0015286396106314888 0.00011250979529170489 0.0005648861073791033 0.000007804912417553358
          0.00002281878690502939 0.0010625968223468905 0.0020958203618744184 -0.007556827473871396 0.021759966773925297 0.1343926882708225
          -0.016775686423743563 0.020676955853285616 0.11197269676513878 -0.0014815235906786347 0.013218654923519525 0.08337593676802946
          -0.012423570821766339 0.021221729269284145 0.12391010283875707 -0.006914699683805037 0.011569594304168087 0.05227802105154786
          -0.004584625930969982 0.012462170545661948 0.06924852978107283 0.0002639248246432118 0.009756016067570547 0.06316936642918333
          -0.0010688154498665592 0.009376324684081675 0.05608008224774944 -0.004088441023516838 0.017219971825637774 0.10711704404857585
          -0.010054527616058583 0.021491665010524394 0.1293332481349839 -0.006124940722987019 0.016895870993026176 0.10108534295478368
          -0.014663957090994667 0.02095015955020455 0.11812325238214204 -0.01117174289348861 0.015803992171588357 0.0796047870981782
          -0.009666591657972906 0.01618788116600147 0.08732921447958485 -0.004004556794692841 0.007973762251024802 0.029992398625247788
          -0.003203056259534586 0.008485197775808802 0.03949159834578166 -0.003129703334256345 0.012857424217545273 0.07666762099237219
          -0.002224475811259158 0.00895271858682776 0.04818749288661554 -0.00798432426780571 0.01655184077314741 0.09448939976512001
          -0.005846291380819546 0.012032893907869553 0.06111866313413139 0.0008135981507355017 0.008226700906909537 0.054391532612897885
          0.0001928137942793867 0.00804165113265149 0.05091074693542044 -0.0005011157558281669 0.011420000739773877 0.07283083448089386
          -0.0012654417684529486 0.011238540151253256 0.06945843044400743 -0.00042458030175132003 0.00957165971504674 0.059725137485928885
          -0.0003887525717994997 0.007844780133106367 0.047222631582108834 -0.000931100947501157 0.007636087908274168 0.043327186552963054
          -0.0026772986799081916 0.01515197861880749 0.09480467329059011 -0.005128830392583364 0.017060412582740374 0.1041717237636637
          -0.003617566813868971 0.014982916585100071 0.09168172358287485 -0.0057149506215045725 0.019422634544010376 0.12031304904198664
          -0.008821759662024918 0.021626020139454763 0.13190843134795174 -0.006863561341968681 0.019274780434191938 0.11758062635202268
          -0.007972940481480189 0.01912409959652312 0.11473052264266019 -0.01125513133597239 0.021356901387134187 0.126667138631919
          -0.0090430880400391 0.018970592031003933 0.11176273791389925 -0.013559846073440431 0.021086148656974266 0.12106214075549808
          -0.012018141230000235 0.018493108967344116 0.10215329761122548 -0.011065688414299123 0.01865509671641443 0.10547412539818188
          -0.015735903874429042 0.020813761948975003 0.11509343771868893 -0.013805352118544664 0.018160653285652365 0.0951585989791172
          -0.012931362464748748 0.018328294490423426 0.0987147888048706 -0.010441306795062194 0.01599842784220331 0.08353753105086546
          -0.008874858748575402 0.0136069725110936 0.06531126112232175 -0.008265736865369378 0.013824162004314654 0.06956166445667356
          -0.005291265699177517 0.009691857550811821 0.04050506688585654 -0.00362594151625336 0.008234969352637433 0.03484241163297722
          -0.004858054225964961 0.009942432759531715 0.04521410474772944 -0.0030545729703510107 0.00641530840480703 0.0207400162697216
          -0.0027083145465354977 0.0066831067560746095 0.025672109678038228 -0.0023228381323427555 0.006939083882055114 0.03039687341052069
          -0.0018981437277727849 0.0071832397827485414 0.03491430746716898 -0.002329770605825499 0.013042292441271032 0.08011062580965608
          -0.0019824657040188407 0.01104720604556131 0.06589507871783723 -0.0038813217759711724 0.012664050252342244 0.07304692231617778
          -0.003274607343973957 0.010634917282663445 0.05819553219764546 -0.002652187562525844 0.010845998422698039 0.06214077930238323
          -0.0016687806197025052 0.009170010974675348 0.05223420071464499 -0.0014342313328255855 0.007415574458154894 0.03922441184798311
          -0.004510528340579071 0.01480697920003356 0.08839770907135434 -0.01007400401764541 0.018814257737634368 0.1086772721657398
          -0.0070767720147278 0.01672634705649519 0.09785790162193579 -0.005356183260038491 0.01462416646360796 0.08495262975602862
          -0.006154531572247233 0.014434478375823269 0.08134648563689768 -0.008847597482220745 0.016372352142982837 0.09097983738433638
          -0.0064046526756703 0.011805496976757453 0.05678718902229488 -0.007609308374912675 0.014034476146176615 0.07365100298722016
          -0.006905573277205293 0.014237914936679488 0.07757927671396153 -0.005239615799252773 0.012251785097504384 0.06527244338705737
          -0.004377540675693516 0.010183134451080282 0.04973219492031856 -0.0027359010245365184 0.008724447520538912 0.0439399587636611
          -0.003849725048363181 0.010413962625457525 0.0540593374036239 -0.030217678960800867 0.042241885180604816 0.2681100818954002
          -0.047456178909089305 0.041775885370341895 0.26387031516739345 -0.017121161304716494 0.03168978034696733 0.19686494937006369
          -0.03873739227402819 0.04197154266521329 0.2656523515414809 -0.030723203235620635 0.03114393482138543 0.1848355828428281
          -0.02396104684735488 0.031369180248728805 0.19085628463286997 -0.011897471411139036 0.02664708715287188 0.16453220989218117
          -0.014876981589748005 0.026435372818143274 0.1605469649040534 -0.02322789715460377 0.03688804635621164 0.23139090670447002
          -0.034452651452185304 0.04209737827034404 0.26679675497096156 -0.027076043507811367 0.03673822944805309 0.22927871832204225
          -0.04307190142632952 0.041864378365212576 0.2646768716069582 -0.03874150871465602 0.03643928864825658 0.2235814682242513
          -0.03483284928783749 0.03651385059407556 0.2253739990819329 -0.02340126247198315 0.025889823889728443 0.14763265902312395
          -0.02062887712017006 0.02605674118657155 0.15209718946952477 -0.020550820220332267 0.031517560963986176 0.19386212163307284
          -0.017787450159425015 0.026238590829376497 0.15640195809650126 -0.030944360885555938 0.03661349752734107 0.2272730824478632
          -0.027351841185784338 0.031244638201195225 0.18784743836945506 -0.009616768697966488 0.024184080361504982 0.14918829684943638
          -0.01100024992460454 0.02406419378124089 0.14696484101720717 -0.014398935613389037 0.029148987148026 0.18042442739905695
          -0.016008579992891344 0.029051529122519147 0.1786925811729662 -0.013395856701560016 0.026539363442262348 0.16255955762554533
          -0.012359331520791439 0.02394620887205583 0.1446774265245249 -0.013694013486527185 0.02383012563394981 0.14232605337138954
          -0.020064148485121405 0.03426946674969588 0.21385377580520137 -0.025149448953140446 0.03681000227870155 0.23032149344972502
          -0.02188537611868156 0.03418684854073875 0.21257354908505605 -0.026612407313163593 0.03954551916651462 0.24947634206786962
          -0.03232894416518578 0.04216729781233317 0.26743230299631116 -0.028630638301975188 0.03947015203589969 0.24860774475347672
          -0.03065792439788648 0.03940049381692056 0.24777505665150817 -0.03658880082179944 0.04203212655463741 0.2662034378193515
          -0.03269426560089747 0.03933654450957723 0.24697827776196393 -0.040898425808871555 0.041915626602071675 0.26514349613734983
          -0.038857619852528655 0.03917895005736199 0.2448033963678771 -0.03679411332821855 0.03922577262979794 0.2454924476201484
          -0.04525781912640211 0.04181779795463598 0.2642524779503061 -0.043011798222447925 0.03910243164739747 0.24353302150060752
          -0.04093018148393844 0.03913783639656182 0.24415025432803014 -0.03678465762317964 0.036473433997735255 0.22446441458956098
          -0.03464531038571359 0.03378645637291924 0.20401565533832483 -0.032821247544125694 0.03382459075815627 0.20519495873489865
          -0.026975187264377157 0.028511723993655164 0.16604125073776116 -0.0220236999971931 0.025971415994904767 0.14988489447375242
          -0.02544076873113243 0.02857358175674102 0.16790519867699433 -0.02000142885843862 0.02327823450960526 0.12960980769891647
          -0.018788745044958637 0.023384809392316096 0.13228097415431728 -0.017551661601027505 0.023493285946105967 0.13488818194926497
          -0.016290178526645216 0.02360366417097488 0.13743143108375958 -0.018838419798598526 0.03160069082201128 0.19536391165946976
          -0.01760747782292828 0.02895915684878672 0.1769418632735694 -0.022258362569917717 0.03144039077289201 0.1923595792908729
          -0.020773033834606047 0.028789669556645157 0.17338381245485754 -0.01919562910349985 0.028871870326828725 0.1751722737008665
          -0.016340846075703006 0.026335115280514656 0.15849443172770536 -0.015004295821811777 0.023715944066922828 0.1399107215578011
          -0.02370700878195996 0.03411058516374163 0.2113077399825638 -0.03473966191100817 0.039278304113869685 0.246217408084844
          -0.02900768081861653 0.036672727864266265 0.22826258132142163 -0.025529046474956612 0.03404067661870453 0.21005634849772462
          -0.02735148919767151 0.03397712290562744 0.2088193746305385 -0.03288608370862959 0.0365605384372775 0.22631022170136694
          -0.029039951246776628 0.031191306677824854 0.1863418867640431 -0.030997589732256053 0.03386907997535331 0.20638867974912553
          -0.029174336950104657 0.03391992402451037 0.20759681838100547 -0.025658873052643753 0.03130392939149654 0.189352237659064
          -0.023895603648422338 0.028640525271601304 0.16975027494292147 -0.019216793840914032 0.026145799464728794 0.15426954401044105
          -0.022339692016246877 0.028712554538236016 0.17157647953554253 -0.06226000641767486 0.06383342864360775 0.42394915038977155
          -0.08306754897133607 0.06329132554764463 0.4270476773970222 -0.04565956560937137 0.05307139627832316 0.3448856331381851
          -0.07245796680226274 0.0635341720852237 0.4250838894232031 -0.06542187397678324 0.05251196358435997 0.3457249834488022
          -0.05536542596969467 0.05277710908771809 0.34487074074484136 -0.0377938030151195 0.047665075571018206 0.3062118617656925
          -0.04235780680897149 0.04751738069148819 0.30557433080625584 -0.05381496674355649 0.05846084730251967 0.38413139601287816
          -0.06730753388690812 0.0636767491118151 0.42441288878893885 -0.0587852480263329 0.05830706611222372 0.3843823977152445
          -0.07771130516373873 0.06340569756383355 0.4259621522925642 -0.0742847139832023 0.05789623409734398 0.38645282721456076
          -0.06902012164615581 0.05802475950963588 0.3855431133160858 -0.056479028952078916 0.04713851400869261 0.30486414609974644
          -0.051700419777451205 0.04725409991032539 0.3049004729732828 -0.05046867233368736 0.05292060997211476 0.34476954505435015
          -0.04699334572974873 0.04738038880459059 0.30513720120878596 -0.06385363299386601 0.05816170351459579 0.38485297014964703
          -0.06034982651739329 0.05264089362513316 0.3451892202096587 -0.03396953617046853 0.044955589086200065 0.2870894728927713
          -0.036166855939383555 0.044880767816568995 0.2865880946323533 -0.041690479494753775 0.05037034463505924 0.3254772485141637
          -0.04402896541057464 0.05029466513414865 0.32527215744643617 -0.04006686302117984 0.047589890257174146 0.3058680461157283
          -0.03837951535958719 0.04480947612348082 0.2861333380870087 -0.04060751443107943 0.04474171400693554 0.2857252032567375
          -0.04970106135897227 0.05576823050080997 0.36443701563775655 -0.056287844424350114 0.058382904383288206 0.38422945052255675
          -0.05213945611215978 0.05569117219720567 0.36445285964985036 -0.058001281763124024 0.06114924668345227 0.40396877426354977
          -0.06477090697152632 0.06375332606456127 0.42415511180996807 -0.06049832804413896 0.06107028900574006 0.40413020124259597
          -0.0630206771856293 0.060994004254584115 0.4043454384504917 -0.06986988716382025 0.06360369778536924 0.4247224813266839
          -0.06556832918759505 0.06092039242998441 0.40461448588723675 -0.07507177280223556 0.06346817201137847 0.4254971130784965
          -0.0733631023563447 0.060715594515522844 0.4057444895705686 -0.07073954177295276 0.06078118756045378 0.40531401144727525
          -0.08037656388677222 0.06334674874258894 0.4264790070654061 -0.07868613210455484 0.06059242720532973 0.4067668765037037
          -0.07601196580021206 0.06065267439714816 0.4062287779227114 -0.07164015485408445 0.05795944447940643 0.38597052392381875
          -0.06986329460727843 0.05520274622368739 0.36610552952959363 -0.06726113104838939 0.05526705898936374 0.36570424506872823
          -0.06096045209171674 0.04982388617936171 0.32531118897218647 -0.0540807824738994 0.04719496908542995 0.3048572593662688
          -0.05848144485829686 0.0498848212923755 0.32514761278995324 -0.05197760455786977 0.04445584707235267 0.2843838548314821
          -0.04967290722993449 0.04450596130618344 0.28455888108638644 -0.04738354955328781 0.04455960511655711 0.28478052905636414
          -0.04510953152792974 0.04461677850347369 0.2850487987414152 -0.04805316310756795 0.052995092447492495 0.34480042862447685
          -0.04638752580033822 0.05022109197436618 0.325119733128703 -0.0529060932877296 0.052847948852189956 0.344792982427805
          -0.05116487000169352 0.05008026467818556 0.3249728847432199 -0.04876616066404451 0.050149625155711815 0.32501997556096424
          -0.044666634378494455 0.04744754687396034 0.3053307158372751 -0.04285085315386029 0.044677481466933164 0.28536369014153967
          -0.05460124640901892 0.05561593468473394 0.3645237665831973 -0.0681412840500362 0.060849453531940975 0.4049373435528313
          -0.06130717754950486 0.05823333248932626 0.38459023759094124 -0.057086432249549714 0.05554251796339477 0.36464973643779736
          -0.059595013633752164 0.05547092203318817 0.36483076921365043 -0.06642461435941631 0.058092179188032333 0.38517059539136195
          -0.06287489438312685 0.0525755179270201 0.3454299413574397 -0.064682363033172 0.05533319254617265 0.3653580235291159
          -0.06212699056162625 0.05540114689411413 0.36506686491075657 -0.05784667037958257 0.05270809067869916 0.3450028200054593
          -0.05602251209881969 0.04994786274651741 0.3250367033577144 -0.04933794086273431 0.04731590648337894 0.3049937869207886
          -0.053583653813285254 0.05001301054178743 0.3249784606754699 -0.0019464950681920977 -0.0012851169862077567 -0.03105492798473419
          0 0 0 -0.0012922114407230693 -0.0007278149818046792 -0.019064534508802963
          -0.0006410902605212391 -0.0000413500724144013 -0.007763731996183547 0 0 0
          -0.0005788685103738595 -0.00014163776678163692 -0.004766133627200741 -0.00023811643269745552 -0.00007587464680178054 -0.0008467353150514115
          0 0 0 -0.0009183287190419017 -0.000489493285999766 -0.013547765040822588
          -0.0006972807922184064 -0.0003206212898016635 -0.007620617835462705 -0.001634933557106468 -0.0009930228818740095 -0.02490025549010683
          -0.001210753345962966 -0.0005129314241387097 -0.01746839699141298 -0.0010898881909663987 -0.0004432623213753311 -0.014006393713185092
          -0.00023750581186691712 0.00012962706896516862 -0.0019409329990458868 0 0 0
          -0.00027242141241316483 0.000053249119561673595 -0.0015562659681316769 -0.00047054336343692435 -0.00018274841006900172 -0.003386941260205647
          -0.00027262495269001093 -0.000015251452360642787 -0.0011915334068001852 -0.0009187306730515456 -0.00037915894326298236 -0.010723800661201667
          -0.0006357174760686311 -0.00009450498756343679 -0.006225063872526707 -0.00010624920982478352 -0.00005229349175785296 -0.00017045292381763602
          0 0 0 -0.00030478782082610624 -0.00015281620712716338 -0.0015340763143587247
          -0.00020784515010015226 -0.00010323222746690743 -0.0006818116952705444 -0.0001197694040934761 -0.000034062433842710184 -0.00021168382876285283
          -0.00012838971772547353 -0.000014542559397685025 -0.0002541606380569897 0 0 0
          -0.0005676962157074796 -0.0002934396098151403 -0.0061363052574349 -0.0004847133536297699 -0.00024791989830127986 -0.004261323095440902
          -0.0007197021312146546 -0.0003804147646964658 -0.010908987124328709 -0.0006460258082357744 -0.00033760456528020234 -0.008352193267064168
          -0.0008085159433749024 -0.00040118239834253467 -0.010372507609379794 -0.0011091651555447065 -0.0006052933583691705 -0.016266280835647337
          -0.0009602635843840035 -0.0004685125781745629 -0.012453871264792494 -0.0014674675745769898 -0.0008570581563062922 -0.02194252606028946
          -0.0013510515426311458 -0.0006930171982888223 -0.019064258109613045 -0.0012315313840121252 -0.0006144299781477067 -0.016799746514909116
          -0.0017946093883115038 -0.001135709158507831 -0.027937722798255075 -0.001557864377479106 -0.0008614486788801409 -0.02377642923831211
          -0.0014598292071201396 -0.0007753567651996338 -0.02138981901741404 -0.001156607313829468 -0.00047740115717564166 -0.015714969074018478
          -0.0009051619736436769 -0.00023956522198346323 -0.012130831244036792 -0.0008849437084394901 -0.00024184233443585497 -0.010913172968068386
          -0.00041853820659565246 0.00008171402456847598 -0.004367099247853246 -0.00025930261967371614 0.00009045342207827376 -0.001746107674890942
          -0.00043629136136161414 0.0000420849551911028 -0.003928742268504619 -0.00009799307633503293 0.00010238906077567663 -0.0004852332497614718
          0 0 0 -0.00011387216588651142 0.00007642510368123951 -0.00043652691872273565
          -0.00012485137480129472 0.0000517499631166848 -0.0003890664920329193 0 0 0
          -0.00013093070307938282 0.000028363639082012455 -0.00034285196969202283 -0.00039707722200264545 -0.00020104543073862083 -0.0027272467810821772
          -0.0003550410858119383 -0.00012543663887721105 -0.0019051544588656762 -0.0005311404595606624 -0.00016294585541667375 -0.004066570208911834
          -0.0004215444059077055 -0.00006455275181359594 -0.0026809501653004167 -0.0003939599475058047 -0.0000960154871060219 -0.002287445742512907