<?xml version="1.0"?>
<VTKFile type="UnstructuredGrid" version="0.1" byte_order="LittleEndian" header_type="UInt32" compressor="vtkZLibDataCompressor">
  <UnstructuredGrid>
    <FieldData>
      <DataArray type="Float64" Name="TIME" NumberOfTuples="1" format="ascii" RangeMin="0.9999999999999999" RangeMax="0.9999999999999999">
        0.9999999999999999
      </DataArray>
      <DataArray type="Int64" IdType="1" Name="PointMergeMap" NumberOfTuples="135" format="ascii" RangeMin="0" RangeMax="76">
        0 1 2 3 4 5
        6 7 8 1 9 10
        2 11 12 13 5 14
        9 15 16 10 17 18
        19 12 20 15 21 22
        16 23 24 25 18 26
        21 27 28 22 29 30
        31 24 32 3 2 33
        34 6 35 36 37 38
        2 10 39 33 13 40
        41 35 42 10 16 43
        39 19 44 45 40 46
        16 22 47 43 25 48
        49 44 50 22 28 51
        47 31 52 53 48 54
        34 33 55 56 36 57
        58 59 60 33 39 61
        55 41 62 63 57 64
        39 43 65 61 45 66
        67 62 68 43 47 69
        65 49 70 71 66 72
        47 51 73 69 53 74
        75 70 76
      </DataArray>
    </FieldData>
    <Piece NumberOfPoints="289" NumberOfCells="302">
      <PointData>
      </PointData>
      <CellData Scalars="edge_flag">
        <DataArray type="Float64" Name="element_gid" format="ascii" RangeMin="0" RangeMax="14">
          0 0 0 0 0 0
          0 0 0 0 0 0
          0 0 0 0 0 0
          0 0 0 0 0 0
          0 0 0 0 0 0
          1 1 1 1 1 1
          1 1 1 1 1 1
          1 1 1 1 1 1
          1 1 1 1 1 1
          2 2 2 2 2 2
          2 2 2 2 2 2
          2 2 2 2 2 2
          2 2 2 2 2 2
          3 3 3 3 3 3
          3 3 3 3 3 3
          3 3 3 3 3 3
          3 3 3 3 3 3
          4 4 4 4 4 4
          4 4 4 4 4 4
          4 4 4 4 4 4
          4 4 4 4 4 4
          5 5 5 5 5 5
          5 5 5 5 5 5
          5 5 5 5 5 5
          5 5 5 5 5 5
          6 6 6 6 6 6
          6 6 6 6 6 6
          6 6 6 6 7 7
          7 7 7 7 7 7
          7 7 7 7 7 7
          7 7 8 8 8 8
          8 8 8 8 8 8
          8 8 8 8 8 8
          9 9 9 9 9 9
          9 9 9 9 9 9
          9 9 9 9 10 10
          10 10 10 10 10 10
          10 10 10 10 10 10
          10 10 10 10 10 10
          10 10 10 10 11 11
          11 11 11 11 11 11
          11 11 11 11 11 11
          11 11 12 12 12 12
          12 12 12 12 12 12
          12 12 12 12 12 12
          13 13 13 13 13 13
          13 13 13 13 13 13
          13 13 13 13 14 14
          14 14 14 14 14 14
          14 14 14 14 14 14
          14 14
        </DataArray>
        <DataArray type="Float64" Name="element_owner" format="ascii" RangeMin="0" RangeMax="0">
          0 0 0 0 0 0
          0 0 0 0 0 0
          0 0 0 0 0 0
          0 0 0 0 0 0
          0 0 0 0 0 0
          0 0 0 0 0 0
          0 0 0 0 0 0
          0 0 0 0 0 0
          0 0 0 0 0 0
          0 0 0 0 0 0
          0 0 0 0 0 0
          0 0 0 0 0 0
          0 0 0 0 0 0
          0 0 0 0 0 0
          0 0 0 0 0 0
          0 0 0 0 0 0
          0 0 0 0 0 0
          0 0 0 0 0 0
          0 0 0 0 0 0
          0 0 0 0 0 0
          0 0 0 0 0 0
          0 0 0 0 0 0
          0 0 0 0 0 0
          0 0 0 0 0 0
          0 0 0 0 0 0
          0 0 0 0 0 0
          0 0 0 0 0 0
          0 0 0 0 0 0
          0 0 0 0 0 0
          0 0 0 0 0 0
          0 0 0 0 0 0
          0 0 0 0 0 0
          0 0 0 0 0 0
          0 0 0 0 0 0
          0 0 0 0 0 0
          0 0 0 0 0 0
          0 0 0 0 0 0
          0 0 0 0 0 0
          0 0 0 0 0 0
          0 0 0 0 0 0
          0 0 0 0 0 0
          0 0 0 0 0 0
          0 0 0 0 0 0
          0 0 0 0 0 0
          0 0 0 0 0 0
          0 0 0 0 0 0
          0 0 0 0 0 0
          0 0 0 0 0 0
          0 0 0 0 0 0
          0 0 0 0 0 0
          0 0
        </DataArray>
        <DataArray type="Int32" Name="material_id" format="ascii" RangeMin="1" RangeMax="1">
          1 1 1 1 1 1
          1 1 1 1 1 1
          1 1 1 1 1 1
          1 1 1 1 1 1
          1 1 1 1 1 1
          1 1 1 1 1 1
          1 1 1 1 1 1
          1 1 1 1 1 1
          1 1 1 1 1 1
          1 1 1 1 1 1
          1 1 1 1 1 1
          1 1 1 1 1 1
          1 1 1 1 1 1
          1 1 1 1 1 1
          1 1 1 1 1 1
          1 1 1 1 1 1
          1 1 1 1 1 1
          1 1 1 1 1 1
          1 1 1 1 1 1
          1 1 1 1 1 1
          1 1 1 1 1 1
          1 1 1 1 1 1
          1 1 1 1 1 1
          1 1 1 1 1 1
          1 1 1 1 1 1
          1 1 1 1 1 1
          1 1 1 1 1 1
          1 1 1 1 1 1
          1 1 1 1 1 1
          1 1 1 1 1 1
          1 1 1 1 1 1
          1 1 1 1 1 1
          1 1 1 1 1 1
          1 1 1 1 1 1
          1 1 1 1 1 1
          1 1 1 1 1 1
          1 1 1 1 1 1
          1 1 1 1 1 1
          1 1 1 1 1 1
          1 1 1 1 1 1
          1 1 1 1 1 1
          1 1 1 1 1 1
          1 1 1 1 1 1
          1 1 1 1 1 1
          1 1 1 1 1 1
          1 1 1 1 1 1
          1 1 1 1 1 1
          1 1 1 1 1 1
          1 1 1 1 1 1
          1 1 1 1 1 1
          1 1
        </DataArray>
        <DataArray type="Int64" IdType="1" Name="vtkOriginalCellIds" format="ascii" RangeMin="0" RangeMax="14">
          0 0 0 0 0 0
          0 0 0 0 0 0
          0 0 0 0 0 0
          0 0 0 0 0 0
          0 0 0 0 0 0
          1 1 1 1 1 1
          1 1 1 1 1 1
          1 1 1 1 1 1
          1 1 1 1 1 1
          2 2 2 2 2 2
          2 2 2 2 2 2
          2 2 2 2 2 2
          2 2 2 2 2 2
          3 3 3 3 3 3
          3 3 3 3 3 3
          3 3 3 3 3 3
          3 3 3 3 3 3
          4 4 4 4 4 4
          4 4 4 4 4 4
          4 4 4 4 4 4
          4 4 4 4 4 4
          5 5 5 5 5 5
          5 5 5 5 5 5
          5 5 5 5 5 5
          5 5 5 5 5 5
          6 6 6 6 6 6
          6 6 6 6 6 6
          6 6 6 6 7 7
          7 7 7 7 7 7
          7 7 7 7 7 7
          7 7 8 8 8 8
          8 8 8 8 8 8
          8 8 8 8 8 8
          9 9 9 9 9 9
          9 9 9 9 9 9
          9 9 9 9 10 10
          10 10 10 10 10 10
          10 10 10 10 10 10
          10 10 10 10 10 10
          10 10 10 10 11 11
          11 11 11 11 11 11
          11 11 11 11 11 11
          11 11 12 12 12 12
          12 12 12 12 12 12
          12 12 12 12 12 12
          13 13 13 13 13 13
          13 13 13 13 13 13
          13 13 13 13 14 14
          14 14 14 14 14 14
          14 14 14 14 14 14
          14 14
        </DataArray>
        <DataArray type="UInt8" Name="corner_cell_flag" format="ascii" RangeMin="0" RangeMax="1">
          0 0 0 0 0 0
          0 0 0 1 1 0
          0 0 0 0 0 1
          1 0 0 0 0 0
          0 1 1 0 0 0
          1 0 0 0 0 0
          0 1 1 0 0 0
          0 0 0 1 1 0
          0 0 0 0 0 1
          1 0 0 0 0 0
          0 1 1 0 0 0
          0 0 0 1 1 0
          0 0 0 0 0 1
          1 0 0 0 0 0
          0 1 1 0 0 0
          0 0 0 1 1 0
          0 0 0 0 0 1
          1 0 0 0 0 0
          0 1 1 0 0 0
          0 0 0 1 1 0
          0 0 0 0 0 1
          1 0 0 0 1 0
          0 0 0 0 0 1
          1 0 0 0 0 0
          0 1 1 0 0 0
          1 0 0 0 0 0
          0 1 1 0 0 0
          0 0 0 1 1 0
          0 0 0 0 0 1
          1 0 0 0 0 0
          0 1 1 0 0 0
          0 0 0 1 1 0
          0 0 0 0 0 1
          1 0 0 0 0 0
          0 1 1 0 0 0
          0 0 0 1 1 0
          0 0 1 0 0 0
          0 0 0 1 1 0
          0 0 0 0 0 1
          1 0 0 0 1 0
          0 0 0 0 0 1
          1 0 0 0 0 0
          0 1 1 0 0 0
          0 0 0 1 1 0
          0 0 0 0 0 1
          1 0 0 0 0 0
          0 1 1 0 0 0
          0 0 0 1 1 0
          0 0 0 0 0 1
          1 0 0 0 0 0
          0 1
        </DataArray>
        <DataArray type="Float64" Name="displacement" NumberOfComponents="3" format="ascii" RangeMin="0" RangeMax="0.4674915607369478">
          0.00009434463726831112 -0.00013420232270580366 0.00032593365584855573 0 0 0
          0.00018531963716563553 -0.000167574822218531 0.0008474275052062449 0.0003003619871073459 -0.00015286527976742257 0.0016296682792427786
          0 0 0 0 0 0
          0.0004394716870934423 -0.00009007369535247832 0.0026726559779581566 0.0006026487371239247 0.000020799931026301703 0.003976390601352379
          0.000789893137198793 0.00017975559936891754 0.0055408721494254465 0.0010012048873180473 0.0003867933096753692 0.007366100622177359
          0.0010143230432505127 0.0004541915023254109 0.0074897285538287495 0.000816333749871503 0.000357728233089401 0.005727327480226264
          0.0006165840962875076 0.00026090311735794345 0.0038568164029959095 0.0004150740824985264 0.00016371615513103817 0.0018781953221376868
          0.00021180370850455932 0.00006616734640868519 -0.0002085357623484045 0.0000067729743056065125 -0.00003174330880911547 -0.002403376850462364
          -0.00020001812009833215 -0.0001300158105223638 -0.004706327942204193 -0.0004085695747072566 -0.00022865015873105987 -0.007117389037573889
          -0.0004930392855147925 -0.0002779184367234178 -0.007371437662005661 -0.0004491658637168004 -0.0002727142199894701 -0.005544886736906913
          -0.0003985300245155155 -0.0002576590007310355 -0.003979271658250844 -0.0003411317679109378 -0.00023275277894811377 -0.0026745924260374522
          -0.0002769710939030671 -0.00019799555464070505 -0.0016308490402667391 -0.00020604800249190356 -0.00015338732780880929 -0.0008480415009387043
          -0.00012836249367744715 -0.0000989280984524265 -0.0003261698080533478 -0.00004391456745969787 -0.00003461786657155667 -0.00006523396161066954
          0 0 0 0 0 0
          0 0 0 0 0 0
          0.001216129601699113 0.0006633985246133618 0.009554589509242064 0.0013937585087768411 0.0010525421695183057 0.01231136578988746
          0.0015136372227686568 0.0015757097070579053 0.015738942953747496 0.0015757657436745605 0.0022329011372321608 0.019837321000822167
          0.001580144071494552 0.003024116460041072 0.024606499931111477 0.0015267722062286314 0.003949355675484639 0.030046479744615422
          0.0014156501478767983 0.005008618783562862 0.03615726044133401 0.0012467778964390533 0.0062019057842757404 0.04293884202126723
          0.0008673223710439371 0.006740284830929173 0.044756295912259804 0.0003222317249107547 0.0065505433983514445 0.04116899275669876
          -0.00019071280786973048 0.006348400808064945 0.03737123176912642 -0.0006715112272975186 0.0061338570600696736 0.03336301294954278
          -0.0011201635333726093 0.005906912154365632 0.02914433629794784 -0.0015366697260950032 0.005667566090952817 0.0247152018143416
          -0.0019210298054646996 0.0054158188698312315 0.020075609498724063 -0.0022732437714816987 0.005151670491000875 0.01522555935109522
          -0.0022316094115798933 0.004398073456728845 0.00936223807874692 -0.0018376863574189363 0.0032433749008741112 0.0031814646145250478
          -0.0014947364532245874 0.0022529694550285488 -0.0018181288160163543 -0.0012027596989968468 0.0014268571191921567 -0.005636542212877285
          -0.0009617560947357145 0.0007650378933649349 -0.008273775576057745 -0.0007717256404411903 0.00026751177754688366 -0.009729828905557734
          -0.0006326683361132745 -0.00006572122826199709 -0.010004702201377252 -0.000544584181751967 -0.00023466112406170733 -0.009098395463516299
          0.0009807511865921022 0.007529378082350191 0.05044443282246769 0.0005387614876893568 0.008991358487240041 0.05878044952104061
          -0.00011859546559247753 0.010588008403672213 0.0680001004550386 -0.0009913196732534008 0.0123193278316467 0.07810338562446166
          -0.0020794111352934134 0.014185316771163508 0.08909030502930979 -0.003382869851712515 0.01618597522222263 0.10096085866958299
          -0.004901695822510705 0.018321303184824077 0.11371504654528125 -0.0066358890476879845 0.02059130065896784 0.12735286865640458
          -0.008189293567948158 0.02169299345669003 0.13315055980938711 -0.00943814363904175 0.02155884257498958 0.13062083974146782
          -0.010654829476015487 0.02142428319882929 0.12800019338345145 -0.011839351078869364 0.021289315328209164 0.12528862073533803
          -0.012991708447603386 0.021153938963129205 0.12248612179712758 -0.014111901582217548 0.02101815410358941 0.11959269656882006
          -0.015199930482711854 0.020881960749589777 0.11660834505041548 -0.016255795149086302 0.020745358901130308 0.11353306724191387
          -0.015290519271144113 0.01941880456946899 0.10356564787212799 -0.012488547506016637 0.01698232272862036 0.0873816930386477
          -0.010023300821032005 0.014705482341340979 0.07245802411024997 -0.00789477921619022 0.012588283407630844 0.0587946410869348
          -0.006102982691491277 0.010630725927489953 0.046391543968702195 -0.004647911246935179 0.008832809900918313 0.03524873275555217
          -0.003529564882521926 0.007194535327915916 0.025366207447484693 -0.0027479435982515174 0.005715902208482767 0.016743968044499787
          -0.008586798085918942 0.02297202356771514 0.14179049256012943 -0.010757120054552762 0.025415583757188432 0.15686025337080878
          -0.013148203512264037 0.02789803715044894 0.17247831864561908 -0.015760048459052767 0.030419383747496663 0.18864468838456033
          -0.01859265489491895 0.0329796235483316 0.20535936258763254 -0.02164602281986259 0.035578756552953755 0.2226223412548357
          -0.024920152233883684 0.03821678276136313 0.24043362438616983 -0.028415043136982232 0.04089370217355972 0.2587932119816349
          -0.031273311562993324 0.04220459149646899 0.2677711924458557 -0.03339079780868554 0.042132338041338604 0.26711452898363636
          -0.03552072613699237 0.04206475241249072 0.26650009639515654 -0.03766309654791382 0.04200183460992535 0.2659278946804162
          -0.03981790904144987 0.04194358463364248 0.2653979238394154 -0.04198516361760054 0.04189000248364212 0.26491018387215404
          -0.04416486027636582 0.04184108815992428 0.2644646747786321 -0.046356999017745704 0.04179684166248894 0.26406139655884975
          -0.045233988565768615 0.040439158508869685 0.2537016683340005 -0.040876653468551974 0.037770860147827025 0.2335572448624294
          -0.03669340955018481 0.03511287251058791 0.21379856178128806 -0.03268425681066711 0.03246519559715233 0.19442561909057648
          -0.028849195249998898 0.029827829407520295 0.17543841679029465 -0.025188224868180155 0.027200773941691805 0.15683695488044255
          -0.021701345665210883 0.024584029199666853 0.13862123336102022 -0.01838855764109109 0.021977595181445438 0.12079125223202763
          -0.0320936075656347 0.04359873713340244 0.27759977739408576 -0.03588166959279401 0.046310332328609136 0.2966506673292319
          -0.039742141254936636 0.04901771010303872 0.3158445551399281 -0.04367502255206257 0.0517208704566912 0.3351814408261744
          -0.04768031348417182 0.05441981338956657 0.3546613243879708 -0.05175801405126439 0.05711453890166482 0.37428420582531735
          -0.055908124253340255 0.05980504699298597 0.39405008513821393 -0.06013064409039944 0.06249133766353001 0.41395896232666063
          -0.0635154566946006 0.06379337735408451 0.42405213109986983 -0.06603922042921723 0.0637150375881882 0.42428400029945346
          -0.0685887105253642 0.06364022344859217 0.4245676850578114 -0.0711639269830415 0.06356893493529647 0.4249031853749435
          -0.07376486980224915 0.06350117204830108 0.4252905012508498 -0.07639153898298714 0.06343693478760601 0.4257296326855303
          -0.07904393452525547 0.06337622315321124 0.42622057967898513 -0.08172205642905414 0.06331903714511679 0.42676334223121415
          -0.08087684053794546 0.06194187637648718 0.41690727695036295 -0.07648542304387856 0.05924433065133686 0.3966098518591322
          -0.07207400429524036 0.056549490160515685 0.3762791783720772 -0.06764258429203084 0.053857354904023685 0.3559152564891979
          -0.06319116303424999 0.05116792488186084 0.33551808621049434 -0.05871974052189782 0.04848120009402716 0.31508766753596645
          -0.054228316754974346 0.04579718054052264 0.29462400046561427 -0.04971689173347954 0.043115866221347283 0.2741270849994378
          0 0 0 0 0 0
          0 0 0 0 0 0
          -0.0006164937616388099 -0.0003292362795778678 -0.009629467105247206 -0.0008190154251282782 -0.0004349540253481159 -0.012228376082575649
          -0.001013746937293304 -0.0005473933221844683 -0.014907022938234963 -0.001200688298133888 -0.0006665541700869249 -0.01766540767222515
          -0.0013798395076500295 -0.0007924365690554858 -0.020503530284546212 -0.001551200565841729 -0.0009250405190901509 -0.023421390775198146
          -0.001714771472708986 -0.0010643660201909203 -0.026418989144180952 -0.0018705522282518009 -0.0012104130723577938 -0.029496325391494632
          -0.001752179722835602 -0.0010732828325439488 -0.02741567861152315 -0.001384308861721036 -0.0006871900515094253 -0.020622413114862546
          -0.0010579576598033213 -0.0003762483230610865 -0.014799614117724886 -0.0007731261170824579 -0.00014045764719893228 -0.00994728162011017
          -0.0005298142335584458 0.00002018197607703734 -0.006065415622018396 -0.00032802200923128476 0.0001056705467668223 -0.0031540161234495665
          -0.00016774944410097504 0.00011600806487042262 -0.0012130831244036794 -0.00004899653816751647 0.000051194530387838316 -0.0002426166248807359
          0 0 0 0 0 0
          0 0 0 0 0 0
          -0.002602942051781862 0.004878094375351392 0.010204168411813451 -0.0029293855016369087 0.004601037364662071 0.005089670761595505
          -0.0032622045486827003 0.004323472879822557 -0.00007881655920024427 -0.0036013991929192356 0.00404540092083285 -0.005301293550573794
          -0.003946969434346515 0.003766821487692951 -0.010577760212525145 -0.004298915272964539 0.003487734580402858 -0.015908216545054296
          -0.004657236708773308 0.003208140198962572 -0.02129266254816125 -0.0050219337417728195 0.002928038343372093 -0.026731098221846005
          -0.0050030257887950045 0.002108764315152855 -0.03304690495611642 -0.0045970790657270935 0.0008718676045395297 -0.03921776025196687
          -0.004190640371624396 -0.00012243759975464816 -0.043397960220383905 -0.003783709706486912 -0.0008741512977296785 -0.045587504861367506
          -0.0033762870703146416 -0.0013832734893855611 -0.04578639417491767 -0.0029683724631075843 -0.0016498041747222965 -0.043994628161034416
          -0.0025599658848657406 -0.0016737433537398838 -0.040212206819717725 -0.00215106733558911 -0.0014550910264383237 -0.034439130150967605
          -0.017310846375542026 0.020609639736161752 0.1104399129141173 -0.01842778575048129 0.020477385610585597 0.10747498160863006
          -0.01963796406810523 0.020349887702352593 0.10471132309625425 -0.02094138132841384 0.02022714601146274 0.10214893737698988
          -0.022338037531407125 0.020109160537916032 0.09978782445083695 -0.02382793267708508 0.019995931281712478 0.09762798431779546
          -0.025411066765447708 0.019887458242852072 0.09566941697786538 -0.027087439796495007 0.019783741421334815 0.09391212243104677
          -0.025461120170830933 0.018394581185069224 0.08229340657794793 -0.020790166883892118 0.015797432328233933 0.06160725055085654
          -0.01672857053051126 0.013359949277099045 0.04271032958145196 -0.01327633111068836 0.011082132031664558 0.02560264366973416
          -0.010433448624423414 0.008963980591930475 0.010284192815703138 -0.008199923071716424 0.007005494957896794 -0.003245022980641095
          -0.0065757544525673894 0.005206675129563516 -0.014985003719298541 -0.005560942766976312 0.0035675211069306416 -0.0249357494002692
          -0.048587776350473885 0.0417545790787712 0.2637447139271163 -0.05090958529201771 0.04170893258364125 0.2636033563120507
          -0.05334862235111085 0.04165721826453418 0.2636816884279623 -0.0559048875277533 0.04159943612144999 0.2639797102748512
          -0.05857838082194506 0.04153558615438868 0.2644974218527173 -0.061369102233686135 0.04146566836335025 0.26523482316156066
          -0.06427705176297652 0.0413896827483347 0.2661919142013812 -0.06730222940981623 0.04130762930934202 0.2673686949721791
          -0.06636185599796571 0.03994790920860068 0.25734559126088075 -0.06137626602257156 0.037305392237296946 0.23593658766693776
          -0.0563485731550199 0.034646547024388644 0.21437524300287547 -0.05127877739531072 0.03197137356987578 0.1926615572686939
          -0.04616687874344402 0.029279871873758356 0.17079553046439302 -0.04101287719941981 0.02657204193603636 0.14877716258997284
          -0.03581677276323808 0.023847883756709803 0.12660645364543333 -0.030578565434898834 0.021107397335778676 0.10428340363077454
          -0.08442991038493056 0.06326226793613977 0.4273657580829396 -0.08717550777397942 0.06319969787191448 0.4280435027156057
          -0.08996285428674813 0.06312821812525804 0.4288044138699346 -0.09279194992323667 0.06304782869617045 0.42964849154592644
          -0.09566279468344507 0.06295852958465172 0.43057573574358105 -0.0985753885673733 0.06286032079070183 0.4315861464628985
          -0.10152973157502138 0.0627532023143208 0.43267972370387875 -0.10452582370638928 0.06263717415550861 0.43385646746652184
          -0.10383885822335909 0.06122840815188929 0.42425913686509564 -0.09941112126914098 0.05853608316317918 0.4037899036856022
          -0.09490970572506308 0.05585320621147065 0.3832081805997759 -0.09033461159112538 0.053179777296763674 0.36251396760761667
          -0.08568583886732792 0.050515796419058255 0.34170726470912455 -0.08096338755367065 0.0478612635783544 0.3207880719042996
          -0.0761672576501536 0.04521617877465211 0.2997563891931417 -0.07129744915677677 0.042580542007951375 0.27861221657565094
          0 0 0 0 0 0
          0 0 0 0 0 0
          -0.002022950933736503 -0.0013686744949070687 -0.03267176089680681 -0.00218078379169575 -0.0015501359264713387 -0.03598201841945273
          -0.002348458903395872 -0.0017602901863669003 -0.0394454593391 -0.002525976268836868 -0.0019991372745937538 -0.04306208365574863
          -0.002713335888018738 -0.0022666771911518994 -0.04683189136939862 -0.002910537760941482 -0.002562909936041337 -0.05075488248004997
          -0.003117581887605101 -0.0028878355092620657 -0.05483105698770268 -0.003334468268009594 -0.0032414539108140865 -0.05906041489235675
          -0.0028949114007523428 -0.00285990781959414 -0.054039945589176214 -0.0018897401216891327 -0.0018292618869113582 -0.04064951659362813
          -0.0010760687680783651 -0.0009994380851781318 -0.029172006026015482 -0.0004538973399200402 -0.0003704364143944611 -0.019607413886338274
          -0.000023225837214157873 0.000057743125439653855 -0.01195574017459651 0.00021594574003928183 0.0002851005343242132 -0.006216984890790185
          0.0002636173918402789 0.0003116358122592169 -0.002391148034919302 0.00011978911818883342 0.0001373489592446649 -0.00047822960698386057
          0 0 0 0 0 0
          0 0 0 0 0 0
          -0.005384270055218971 0.002639123786535559 -0.032258898248090404 -0.005726773015623547 0.0023247860742612488 -0.03794681199085813
          -0.006040706306242441 0.001976719979453299 -0.043830214132131035 -0.006326069927075654 0.00159492550211171 -0.049909104671909094
          -0.006582863878123185 0.0011794026422364818 -0.056183483610192334 -0.006811088159385033 0.0007301513998276145 -0.06265335094698074
          -0.0070107427708612 0.00024717177488510825 -0.06931870668227433 -0.007181827712551685 -0.00026953623259103716 -0.07617955081607307
          -0.007336718010390545 -0.0014136576551192922 -0.08419248268873239 -0.007399721719710905 -0.0029692523874364453 -0.09163504991194965
          -0.007282771869911836 -0.004126695291760814 -0.0958282007570668 -0.006985868460993335 -0.004885986368092399 -0.09677193522408384
          -0.006509011492955403 -0.005247125616431198 -0.09446625331300076 -0.005852200965798042 -0.005210113036777214 -0.08891115502381758
          -0.00501543687952125 -0.004774948629130445 -0.08010664035653428 -0.003998719234125028 -0.003941632393490893 -0.06805270931115086
          -0.02884329219878618 0.019679445968047656 0.09232728667105336 -0.030651104829439613 0.019563902184764503 0.09085728168531276
          -0.0324971181170145 0.019431775222372306 0.08947329346753877 -0.03438133206151085 0.019283065080871062 0.08817532201773139
          -0.036303746662928654 0.019117771760260777 0.0869633673358906 -0.03826436192126792 0.018935895260541444 0.08583742942201641
          -0.040263177836528635 0.01873743558171307 0.08479750827610885 -0.04230019440871081 0.01852239272377565 0.08384360389816786
          -0.038995237363494334 0.017045132452353687 0.0689588283106965 -0.030923138923052852 0.014365775659337849 0.041311284568355956
          -0.024038905583880124 0.01179007747099428 0.016085963703304434 -0.01834253734597615 0.009318037887322984 -0.006717134284458063
          -0.013834034209340932 0.006949656908323958 -0.02709800939493153 -0.010513396173974468 0.004684934533997206 -0.045056661628115974
          -0.008380623239876756 0.002523870764342725 -0.060593090984011395 -0.007435715407047797 0.0004664655993605166 -0.07370729746261778
          -0.07043344427140602 0.04121699217842993 0.2687422368965765 -0.07364831454214746 0.04111273961971383 0.2702666828198179
          -0.07693564931924132 0.040992355765251426 0.27191910416452547 -0.08029544860268761 0.040855840615042716 0.27369950093069934
          -0.08372771239248633 0.0407031941690877 0.2756078731183394 -0.08723244068863747 0.04053441642738637 0.27764422072744566
          -0.09080963349114105 0.04034950738993874 0.27980854375801817 -0.09445929079999703 0.040148467056744803 0.2821008422100569
          -0.09414558103027923 0.0387263440176004 0.27300980161836036 -0.08950249496612858 0.036081345567014256 0.2518360076539645
          -0.08419985497661227 0.03341663040969926 0.2293913604531067 -0.07823766106173032 0.03073219854565542 0.20567586001578694
          -0.07161591322148271 0.028028049974882722 0.1806895063420052 -0.06433461145586944 0.025304184697381174 0.15443229943176154
          -0.05639375576489053 0.022560602713150774 0.1269042392850559 -0.04779334614854596 0.019797304022191518 0.09810532590188831
          -0.10755874999012596 0.06251461147868248 0.4351048557108622 -0.1106186804835292 0.06239026461267684 0.4364018443569686
          -0.11370070021524789 0.06226650872190887 0.43773591136487533 -0.11680480918528202 0.06214334380637858 0.43910705673458245
          -0.1199310073936316 0.06202076986608596 0.4405152804660899 -0.12307929484029662 0.061898786901031025 0.44196058255939774
          -0.1262496715252771 0.061777394911213764 0.4434429630145059 -0.12944213744857302 0.06165659389663418 0.44496242183141443
          -0.12871540008456672 0.060219226849184036 0.43540156260907786 -0.12410331168954586 0.05747359473618331 0.41479229788089916
          -0.11958101704541585 0.054745155533060225 0.3942839365813269 -0.11514851615217667 0.052033909239814775 0.373876478710361
          -0.11080580900982834 0.04933985585644696 0.3535699242680015 -0.10655289561837084 0.046662995382956776 0.33336427325424844
          -0.10238977597780416 0.044003327819344226 0.3132595256691017 -0.09831645008812834 0.04136085316560931 0.2932556815125614
          <InformationKey name="L2_NORM_RANGE" location="vtkDataArray" length="2">
            <Value index="0">
              0
            </Value>
            <Value index="1">
              0.46749156074
            </Value>
          </InformationKey>
        </DataArray>
        <DataArray type="Float64" Name="edge_flag" format="ascii" RangeMin="1" RangeMax="1">
          1 1 1 1 1 1
          1 1 1 1 1 1
          1 1 1 1 1 1
          1 1 1 1 1 1
          1 1 1 1 1 1
          1 1 1 1 1 1
          1 1 1 1 1 1
          1 1 1 1 1 1
          1 1 1 1 1 1
          1 1 1 1 1 1
          1 1 1 1 1 1
          1 1 1 1 1 1
          1 1 1 1 1 1
          1 1 1 1 1 1
          1 1 1 1 1 1
          1 1 1 1 1 1
          1 1 1 1 1 1
          1 1 1 1 1 1
          1 1 1 1 1 1
          1 1 1 1 1 1
          1 1 1 1 1 1
          1 1 1 1 1 1
          1 1 1 1 1 1
          1 1 1 1 1 1
          1 1 1 1 1 1
          1 1 1 1 1 1
          1 1 1 1 1 1
          1 1 1 1 1 1
          1 1 1 1 1 1
          1 1 1 1 1 1
          1 1 1 1 1 1
          1 1 1 1 1 1
          1 1 1 1 1 1
          1 1 1 1 1 1
          1 1 1 1 1 1
          1 1 1 1 1 1
          1 1 1 1 1 1
          1 1 1 1 1 1
          1 1 1 1 1 1
          1 1 1 1 1 1
          1 1 1 1 1 1
          1 1 1 1 1 1
          1 1 1 1 1 1
          1 1 1 1 1 1
          1 1 1 1 1 1
          1 1 1 1 1 1
          1 1 1 1 1 1
          1 1 1 1 1 1
          1 1 1 1 1 1
          1 1 1 1 1 1
          1 1
        </DataArray>
        <DataArray type="Float32" Name="original_point_ids" format="ascii" RangeMin="-1" RangeMax="37">
          -1 -1 -1 1.5 -1 3
          1.5 -1 -1 0 0 -1
          -1 2 2 -1 -1 0.5
          0.5 -1 -1 2.5 2.5 -1
          -1 1 1 -1 -1 3
          0 -1 -1 5 5 -1
          -1 4 4 -1 -1 5.5
          5.5 -1 -1 4.5 4.5 -1
          -1 6 6 -1 -1 0.5
          4 -1 -1 8 8 -1
          -1 7 7 -1 -1 8.5
          8.5 -1 -1 7.5 7.5 -1
          -1 9 9 -1 -1 4.5
          7 -1 -1 11 11 -1
          -1 10 10 -1 -1 11.5
          11.5 -1 -1 10.5 10.5 -1
          -1 12 12 -1 -1 7.5
          10 -1 -1 14 14 -1
          -1 13 13 -1 -1 14.5
          14.5 -1 -1 13.5 13.5 -1
          -1 15 15 -1 -1 10.5
          1 -1 -1 18 0.5 -1
          -1 17 17 -1 -1 16
          16 -1 -1 17.5 17.5 -1
          -1 16.5 16.5 -1 -1 18
          4.5 -1 -1 19.5 19.5 -1
          -1 19 19 -1 -1 20
          20 -1 -1 16 7.5 -1
          -1 21.5 21.5 -1 -1 21
          21 -1 -1 22 22 -1
          -1 19 10.5 -1 -1 23.5
          23.5 -1 -1 23 23 -1
          -1 24 24 -1 -1 21
          13.5 -1 -1 25.5 25.5 -1
          -1 25 25 -1 -1 26
          26 -1 -1 23 16.5 -1
          -1 29 16 -1 -1 28
          28 -1 -1 27 27 -1
          -1 28.5 28.5 -1 -1 27.5
          27.5 -1 -1 29 19 -1
          -1 30.5 30.5 -1 -1 30
          30 -1 -1 31 31 -1
          -1 27 21 -1 -1 32.5
          32.5 -1 -1 32 32 -1