<?xml version="1.0"?>
<VTKFile type="UnstructuredGrid" version="0.1" byte_order="LittleEndian" header_type="UInt32" compressor="vtkZLibDataCompressor">
  <UnstructuredGrid>
    <FieldData>
      <DataArray type="Float64" Name="TIME" NumberOfTuples="1" format="ascii" RangeMin="0.9999999999999999" RangeMax="0.9999999999999999">
        0.9999999999999999
      </DataArray>
    </FieldData>
    <Piece NumberOfPoints="135" NumberOfCells="15">
      <PointData>
        <DataArray type="Float64" Name="displacement" NumberOfComponents="3" format="ascii" RangeMin="0" RangeMax="0.4686609761603424">
          0 0 0 0.001112877599888771 0.0005023326753195539 0.008343901589723026
          -0.0005132853920629653 -0.0002780577944592698 -0.008349947086165705 0 0 0
          0.0003638999995892976 -0.0001334899980509094 0.0020859753974307566 0.0003138789855527893 0.00011503221239372359 0.0008618572808016083
          -0.00031074203525782566 -0.00021783691742553117 -0.002087486771541426 0 0 0
          0.00004345789225413557 -0.00022882762697298755 0.00021546432020040206 0.001112877599888771 0.0005023326753195539 0.008343901589723026
          0.0011479042224487026 0.006832055257790844 0.0464973330320375 -0.002441314226152024 0.005016496012158504 0.012747919819277975
          -0.0005132853920629653 -0.0002780577944592698 -0.008349947086165705 0.0015923924558560343 0.0025950028254779524 0.022054210245163162
          -0.0009038739086732382 0.006023484896644845 0.03130628908174814 -0.0010695146093746286 0.001054874228776253 -0.007250453902887633
          0.0003138789855527893 0.00011503221239372359 0.0008618572808016083 0.00020139210890673853 0.0019072471697247847 0.00890389387143905
          0.0011479042224487026 0.006832055257790844 0.0464973330320375 -0.007556827473871396 0.021759966773925297 0.1343926882708225
          -0.016775686423743563 0.020676955853285616 0.11197269676513878 -0.002441314226152024 0.005016496012158504 0.012747919819277975
          -0.0014815235906786347 0.013218654923519525 0.08337593676802946 -0.012423570821766339 0.021221729269284145 0.12391010283875707
          -0.006914699683805037 0.011569594304168087 0.05227802105154786 -0.0009038739086732382 0.006023484896644845 0.03130628908174814
          -0.004584625930969982 0.012462170545661948 0.06924852978107283 -0.007556827473871396 0.021759966773925297 0.1343926882708225
          -0.030217678960800867 0.042241885180604816 0.2681100818954002 -0.047456178909089305 0.041775885370341895 0.26387031516739345
          -0.016775686423743563 0.020676955853285616 0.11197269676513878 -0.017121161304716494 0.03168978034696733 0.19686494937006369
          -0.03873739227402819 0.04197154266521329 0.2656523515414809 -0.030723203235620635 0.03114393482138543 0.1848355828428281
          -0.012423570821766339 0.021221729269284145 0.12391010283875707 -0.02396104684735488 0.031369180248728805 0.19085628463286997
          -0.030217678960800867 0.042241885180604816 0.2681100818954002 -0.06226000641767486 0.06383342864360775 0.42394915038977155
          -0.08306754897133607 0.06329132554764463 0.4270476773970222 -0.047456178909089305 0.041775885370341895 0.26387031516739345
          -0.04565956560937137 0.05307139627832316 0.3448856331381851 -0.07245796680226274 0.0635341720852237 0.4250838894232031
          -0.06542187397678324 0.05251196358435997 0.3457249834488022 -0.03873739227402819 0.04197154266521329 0.2656523515414809
          -0.05536542596969467 0.05277710908771809 0.34487074074484136 0 0 0
          -0.0005132853920629653 -0.0002780577944592698 -0.008349947086165705 -0.0019464950681920977 -0.0012851169862077567 -0.03105492798473419
          0 0 0 -0.00031074203525782566 -0.00021783691742553117 -0.002087486771541426
          -0.0012922114407230693 -0.0007278149818046792 -0.019064534508802963 -0.0006410902605212391 -0.0000413500724144013 -0.007763731996183547
          0 0 0 -0.0005788685103738595 -0.00014163776678163692 -0.004766133627200741
          -0.0005132853920629653 -0.0002780577944592698 -0.008349947086165705 -0.002441314226152024 0.005016496012158504 0.012747919819277975
          -0.005205876157570262 0.002787860547039305 -0.029463813476332833 -0.0019464950681920977 -0.0012851169862077567 -0.03105492798473419
          -0.0010695146093746286 0.001054874228776253 -0.007250453902887633 -0.0037725904143351896 0.003906238072800449 -0.00792602946390502
          -0.0035801213811594737 -0.0011893602701374068 -0.046184613350000944 -0.0012922114407230693 -0.0007278149818046792 -0.019064534508802963
          -0.002302596254294542 0.00002647481227473122 -0.02581217550197995 -0.002441314226152024 0.005016496012158504 0.012747919819277975
          -0.016775686423743563 0.020676955853285616 0.11197269676513878 -0.02794893604768983 0.019733072064911972 0.09308379335591531
          -0.005205876157570262 0.002787860547039305 -0.029463813476332833 -0.006914699683805037 0.011569594304168087 0.05227802105154786
          -0.021616399694239313 0.0201669642203536 0.10091806271563555 -0.011702550634166397 0.009983139860372416 0.01749610947829695
          -0.0037725904143351896 0.003906238072800449 -0.00792602946390502 -0.009083442150948832 0.010692669606563171 0.03438651335783056
          -0.016775686423743563 0.020676955853285616 0.11197269676513878 -0.047456178909089305 0.041775885370341895 0.26387031516739345
          -0.0688441252626234 0.0412650856338514 0.26801200779032236 -0.02794893604768983 0.019733072064911972 0.09308379335591531
          -0.030723203235620635 0.03114393482138543 0.1848355828428281 -0.05721232714546185 0.04156902809391362 0.2641836436310399
          -0.04873335379241675 0.03062970478221821 0.1817666291340733 -0.021616399694239313 0.0201669642203536 0.10091806271563555
          -0.03858738678035938 0.030926593265645733 0.18105498425740646 -0.047456178909089305 0.041775885370341895 0.26387031516739345
          -0.08306754897133607 0.06329132554764463 0.4270476773970222 -0.10603430705300321 0.06257693265549473 0.43446563097825913
          -0.0688441252626234 0.0412650856338514 0.26801200779032236 -0.06542187397678324 0.05251196358435997 0.3457249834488022
          -0.09421693502241091 0.06300540656101887 0.43009132201433803 -0.0880286448766916 0.05184542484866057 0.3521387386349538
          -0.05721232714546185 0.04156902809391362 0.2641836436310399 -0.07618943761699594 0.052220041570567796 0.34797282737164675
          0 0 0 -0.0019464950681920977 -0.0012851169862077567 -0.03105492798473419
          -0.0034453720216470586 -0.00342543631867292 -0.061213389693934125 0 0 0
          -0.0006410902605212391 -0.0000413500724144013 -0.007763731996183547 -0.0026171955149925843 -0.0021257340257900036 -0.044908691663323286
          -0.0001906866072039884 -0.00010614111174001473 -0.015303347423483531 0 0 0
          -0.000508124041023453 -0.0000013818491313515014 -0.011227172915830821 -0.0019464950681920977 -0.0012851169862077567 -0.03105492798473419
          -0.005205876157570262 0.002787860547039305 -0.029463813476332833 -0.007260227765950507 -0.0005363223319625196 -0.07965884498259873
          -0.0034453720216470586 -0.00342543631867292 -0.061213389693934125 -0.0035801213811594737 -0.0011893602701374068 -0.046184613350000944
          -0.00646160932004584 0.0013955961678075056 -0.05299742204142442 -0.0067924283667542265 -0.0051660939492599945 -0.09643144836306733
          -0.0026171955149925843 -0.0021257340257900036 -0.044908691663323286 -0.005033071561476882 -0.0028383201476017772 -0.06938522008951022
          -0.005205876157570262 0.002787860547039305 -0.029463813476332833 -0.02794893604768983 0.019733072064911972 0.09308379335591531
          -0.04332825285903226 0.018410725500029677 0.08338815590118903 -0.007260227765950507 -0.0005363223319625196 -0.07965884498259873
          -0.011702550634166397 0.009983139860372416 0.01749610947829695 -0.03533298919798939 0.01920456421534318 0.08754784048481934
          -0.015791319502341354 0.008107932746655402 -0.017513127559017055 -0.00646160932004584 0.0013955961678075056 -0.05299742204142442
          -0.01414688859683736 0.009201421946701326 0.0005488742327475682 -0.02794893604768983 0.019733072064911972 0.09308379335591531
          -0.0688441252626234 0.0412650856338514 0.26801200779032236 -0.09630223558101313 0.04004391406621126 0.2832789852914428
          -0.04332825285903226 0.018410725500029677 0.08338815590118903 -0.04873335379241675 0.03062970478221821 0.1817666291340733
          -0.08199346437099887 0.04078355021600179 0.2746216931691528 -0.07509167562294793 0.029385053436951285 0.19350039648801157
          -0.03533298919798939 0.01920456421534318 0.08754784048481934 -0.060966363622907874 0.03015021097226576 0.18617895427641346
          -0.0688441252626234 0.0412650856338514 0.26801200779032236 -0.10603430705300321 0.06257693265549473 0.43446563097825913
          -0.13104389271979985 0.061596341133153806 0.4457314208303188 -0.09630223558101313 0.04004391406621126 0.2832789852914428
          -0.0880286448766916 0.05184542484866057 0.3521387386349538 -0.11836238597987794 0.06208190909242285 0.4398018990098861
          -0.11295471414327979 0.05068258432066146 0.36369797563202966 -0.08199346437099887 0.04078355021600179 0.2746216931691528
          -0.10044767672805724 0.05134673267867843 0.35759102035099205
          <InformationKey name="L2_NORM_RANGE" location="vtkDataArray" length="2">
            <Value index="0">
              0
            </Value>
            <Value index="1">
              0.46866097616
            </Value>
          </InformationKey>
        </DataArray>
      </PointData>
      <CellData>
        <DataArray type="Float64" Name="element_gid" format="ascii" RangeMin="0" RangeMax="14">
          0 1 2 3 4 5
          6 7 8 9 10 11
          12 13 14
        </DataArray>
        <DataArray type="Float64" Name="element_owner" format="ascii" RangeMin="0" RangeMax="0">
          0 0 0 0 0 0
          0 0 0 0 0 0
          0 0 0
        </DataArray>
        <DataArray type="Int32" Name="material_id" format="ascii" RangeMin="1" RangeMax="1">
          1 1 1 1 1 1
          1 1 1 1 1 1
          1 1 1
        </DataArray>
      </CellData>
      <Points>
        <DataArray type="Float64" Name="Points" NumberOfComponents="3" format="ascii" RangeMin="4.10235511893504e-17" RangeMax="1.118033988749895">
          -1 -0.5 0 -0.6 -0.5 0
          -0.6 -0.16666666666666669 0 -1 -0.16666666666666669 0
          -0.8 -0.5 0 -0.6000000000000001 -0.33333333333333337 0
          -0.8 -0.1666666666666667 0 -1 -0.33333333333333337 0
          -0.7999999999999999 -0.33333333333333337 0 -0.6 -0.5 0
          -0.19999999999999998 -0.5 0 -0.19999999999999998 -0.16666666666666669 0
          -0.6 -0.16666666666666669 0 -0.39999999999999997 -0.5 0
          -0.19999999999999993 -0.33333333333333337 0 -0.3999999999999999 -0.16666666666666666 0
          -0.6000000000000001 -0.33333333333333337 0 -0.39999999999999997 -0.33333333333333337 0
          -0.19999999999999998 -0.5 0 0.20000000000000018 -0.5 0
          0.20000000000000018 -0.16666666666666669 0 -0.19999999999999998 -0.16666666666666669 0
          2.0816681711721685e-17 -0.5000000000000001 0 0.20000000000000018 -0.33333333333333337 0
          3.122502256758253e-17 -0.16666666666666669 0 -0.19999999999999993 -0.33333333333333337 0
          3.903127820947816e-17 -0.3333333333333333 0 0.20000000000000018 -0.5 0
          0.6000000000000001 -0.5 0 0.6000000000000001 -0.16666666666666669 0
          0.20000000000000018 -0.16666666666666669 0 0.40000000000000013 -0.5 0
          0.6000000000000002 -0.33333333333333337 0 0.4000000000000001 -0.16666666666666669 0
          0.20000000000000018 -0.33333333333333337 0 0.40000000000000013 -0.33333333333333337 0
          0.6000000000000001 -0.5 0 1 -0.5 0
          1 -0.16666666666666669 0 0.6000000000000001 -0.16666666666666669 0
          0.8 -0.5 0 1 -0.33333333333333337 0
          0.8 -0.16666666666666669 0 0.6000000000000002 -0.33333333333333337 0
          0.7999999999999999 -0.33333333333333337 0 -1 -0.16666666666666669 0
          -0.6 -0.16666666666666669 0 -0.6 0.16666666666666663 0
          -1 0.16666666666666663 0 -0.8 -0.1666666666666667 0
          -0.6000000000000001 -6.938893903907228e-18 0 -0.8 0.16666666666666663 0
          -1.0000000000000002 0 0 -0.8 -3.469446951953614e-18 0
          -0.6 -0.16666666666666669 0 -0.19999999999999998 -0.16666666666666669 0
          -0.19999999999999993 0.16666666666666663 0 -0.6 0.16666666666666663 0
          -0.3999999999999999 -0.16666666666666666 0 -0.19999999999999998 -3.469446951953614e-18 0
          -0.3999999999999999 0.16666666666666663 0 -0.6000000000000001 -6.938893903907228e-18 0
          -0.3999999999999999 1.5612511283791264e-17 0 -0.19999999999999998 -0.16666666666666669 0
          0.20000000000000018 -0.16666666666666669 0 0.20000000000000018 0.16666666666666663 0
          -0.19999999999999993 0.16666666666666663 0 3.122502256758253e-17 -0.16666666666666669 0
          0.2000000000000002 3.469446951953614e-18 0 3.8163916471489756e-17 0.16666666666666663 0
          -0.19999999999999998 -3.469446951953614e-18 0 3.9898639947466563e-17 9.540979117872439e-18 0
          0.20000000000000018 -0.16666666666666669 0 0.6000000000000001 -0.16666666666666669 0
          0.6000000000000001 0.16666666666666663 0 0.20000000000000018 0.16666666666666663 0
          0.4000000000000001 -0.16666666666666669 0 0.6000000000000002 -6.938893903907228e-18 0
          0.4000000000000001 0.16666666666666663 0 0.2000000000000002 3.469446951953614e-18 0
          0.40000000000000013 1.3877787807814457e-17 0 0.6000000000000001 -0.16666666666666669 0
          1 -0.16666666666666669 0 1 0.16666666666666663 0
          0.6000000000000001 0.16666666666666663 0 0.8 -0.16666666666666669 0
          1.0000000000000002 0 0 0.8 0.16666666666666663 0
          0.6000000000000002 -6.938893903907228e-18 0 0.7999999999999999 3.469446951953614e-18 0
          -1 0.16666666666666663 0 -0.6 0.16666666666666663 0
          -0.6 0.5 0 -1 0.5 0
          -0.8 0.16666666666666663 0 -0.6 0.33333333333333337 0
          -0.8 0.5 0 -1 0.3333333333333333 0
          -0.8 0.3333333333333333 0 -0.6 0.16666666666666663 0
          -0.19999999999999993 0.16666666666666663 0 -0.19999999999999998 0.5 0
          -0.6 0.5 0 -0.3999999999999999 0.16666666666666663 0
          -0.19999999999999993 0.3333333333333333 0 -0.39999999999999997 0.5 0
          -0.6 0.33333333333333337 0 -0.3999999999999999 0.33333333333333326 0
          -0.19999999999999993 0.16666666666666663 0 0.20000000000000018 0.16666666666666663 0
          0.20000000000000018 0.5 0 -0.19999999999999998 0.5 0
          3.8163916471489756e-17 0.16666666666666663 0 0.20000000000000018 0.3333333333333333 0
          2.0816681711721685e-17 0.5000000000000001 0 -0.19999999999999993 0.3333333333333333 0
          3.642919299551295e-17 0.33333333333333326 0 0.20000000000000018 0.16666666666666663 0
          0.6000000000000001 0.16666666666666663 0 0.6000000000000001 0.5 0
          0.20000000000000018 0.5 0 0.4000000000000001 0.16666666666666663 0
          0.6000000000000002 0.33333333333333337 0 0.40000000000000013 0.5 0
          0.20000000000000018 0.3333333333333333 0 0.40000000000000013 0.33333333333333326 0
          0.6000000000000001 0.16666666666666663 0 1 0.16666666666666663 0
          1 0.5 0 0.6000000000000001 0.5 0
          0.8 0.16666666666666663 0 1 0.3333333333333333 0
          0.8 0.5 0 0.6000000000000002 0.33333333333333337 0
          0.8 0.3333333333333333 0
          <InformationKey name="L2_NORM_RANGE" location="vtkDataArray" length="2">
            <Value index="0">
              4.1023551189e-17
            </Value>
            <Value index="1">
              1.1180339887
            </Value>
          </InformationKey>
        </DataArray>
      </Points>
      <Cells>
        <DataArray type="Int32" Name="connectivity" format="ascii" RangeMin="0" RangeMax="134">
          0 1 2 3 4 5
          6 7 8 9 10 11
          12 13 14 15 16 17
          18 19 20 21 22 23
          24 25 26 27 28 29
          30 31 32 33 34 35
          36 37 38 39 40 41
          42 43 44 45 46 47
          48 49 50 51 52 53
          54 55 56 57 58 59
          60 61 62 63 64 65
          66 67 68 69 70 71
          72 73 74 75 76 77
          78 79 80 81 82 83
          84 85 86 87 88 89
          90 91 92 93 94 95
          96 97 98 99 100 101
          102 103 104 105 106 107
          108 109 110 111 112 113
          114 115 116 117 118 119
          120 121 122 123 124 125
          126 127 128 129 130 131
          132 133 134
        </DataArray>
        <DataArray type="Int32" Name="offsets" format="ascii" RangeMin="9" RangeMax="135">
          9 18 27 36 45 54
          63 72 81 90 99 108
          117 126 135
        </DataArray>
        <DataArray type="UInt8" Name="types" format="ascii" RangeMin="28" RangeMax="28">
          28 28 28 28 28 28
          28 28 28 28 28 28
          28 28 28
        </DataArray>
      </Cells>
    </Piece>
  </UnstructuredGrid>
</VTKFile>
