<?xml version="1.0"?>
<VTKFile type="UnstructuredGrid" version="0.1" byte_order="LittleEndian" header_type="UInt32" compressor="vtkZLibDataCompressor">
  <UnstructuredGrid>
    <Piece NumberOfPoints="99" NumberOfCells="17">
      <PointData>
        <DataArray type="Float64" Name="node_value" format="ascii" RangeMin="0.5" RangeMax="1">
          1 0.5 1 1 0.5 1
          0.5 1 1 0.5 1 0.5
          1 1 0.5 1 0.5 1
          1 0.5 1 0.5 1 1
          0.5 1 0.5 1 1 0.5
          1 0.5 1 0.5 1 0.5
          1 1 0.5 1 0.5 1
          0.5 1 0.5 1 1 0.5
          1 0.5 1 0.5 1 0.5
          1 1 0.5 1 0.5 1
          0.5 1 0.5 1 1 0.5
          1 0.5 1 1 0.5 1
          0.5 1 1 0.5 1 0.5
          1 1 0.5 1 0.5 1
          1 0.5 1 0.5 1 1
          0.5 1 0.5 1 1 0.5
          1 0.5 1
        </DataArray>
        <DataArray type="Float64" Name="base_vector_1" NumberOfComponents="3" format="ascii" RangeMin="0.22975292054736104" RangeMax="1">
          1 0 0 1 0 0
          1 0 0 1 0 0
          1 0 0 1 0 0
          1 0 0 1 0 0
          1 0 0 1 0 0
          1 0 0 1 0 0
          1 0 0 0 1 0
          0 1 0 0 1 0
          0 1 0 0 1 0
          -1 0 0 -1 0 0
          -1 0 0 -1 0 0
          -1 0 0 0 -1 0
          0 -1 0 0 -1 0
          0 -1 0 0 -1 0
          0 1 0 0 1 0
          0 1 0 0 1 0
          0.22360679774997885 0.947213595499958 0 0.4472135954999577 0.894427190999916 0
          0.4472135954999577 0.894427190999916 0 0.4472135954999577 0.894427190999916 0
          0.4472135954999577 0.894427190999916 0 0 1 0
          0 1 0 0 1 0
          0 1 0 -0.22360679774997885 0.05278640450004202 0
          -0.4472135954999577 -0.894427190999916 0 -0.4472135954999577 -0.894427190999916 0
          -0.4472135954999577 -0.894427190999916 0 -0.4472135954999577 -0.894427190999916 0
          0.4472135954999577 0.894427190999916 0 0.4472135954999577 0.894427190999916 0
          0.4472135954999577 0.894427190999916 0 0.4472135954999577 0.894427190999916 0
          0.22360679774997885 -0.05278640450004202 0 0 -1 0
          0 -1 0 0 -1 0
          0 -1 0 -0.4472135954999577 -0.894427190999916 0
          -0.4472135954999577 -0.894427190999916 0 -0.4472135954999577 -0.894427190999916 0
          -0.4472135954999577 -0.894427190999916 0 -0.22360679774997885 -0.947213595499958 0
          0 -1 0 0 -1 0
          0 -1 0 0 -1 0
          0 1 0 0 1 0
          0 1 0 0 1 0
          0 1 0 0.4472135954999577 0.894427190999916 0
          0.4472135954999577 0.894427190999916 0 0.4472135954999577 0.894427190999916 0
          0.4472135954999577 0.894427190999916 0 0.4472135954999577 0.894427190999916 0
          -0.4472135954999577 0.894427190999916 0 -0.4472135954999577 0.894427190999916 0
          -0.4472135954999577 0.894427190999916 0 -0.4472135954999577 0.894427190999916 0
          -0.4472135954999577 0.894427190999916 0 0 1 0
          0 1 0 0 1 0
          0 1 0 0 1 0
          0.4472135954999577 0.894427190999916 0 0.4472135954999577 0.894427190999916 0
          0.4472135954999577 0.894427190999916 0 0.4472135954999577 0.894427190999916 0
          0.4472135954999577 0.894427190999916 0 -0.4472135954999577 0.894427190999916 0
          -0.4472135954999577 0.894427190999916 0 -0.4472135954999577 0.894427190999916 0
          -0.4472135954999577 0.894427190999916 0 -0.4472135954999577 0.894427190999916 0
          -0.24253562503633297 0.970142500145332 1.1102230246251565e-16 -0.24253562503633297 0.970142500145332 1.1102230246251565e-16
          -0.24253562503633297 0.970142500145332 1.1102230246251565e-16 -0.24253562503633297 0.970142500145332 1.1102230246251565e-16
          -0.24253562503633297 0.970142500145332 1.1102230246251565e-16
          <InformationKey name="L2_NORM_RANGE" location="vtkDataArray" length="2">
            <Value index="0">
              0.22975292055
            </Value>
            <Value index="1">
              1
            </Value>
          </InformationKey>
        </DataArray>
        <DataArray type="Float64" Name="base_vector_2" NumberOfComponents="3" format="ascii" RangeMin="1" RangeMax="1">
          0 1 0 0 1 0
          0 1 0 0 1 0
          0 1 0 0 1 0
          0 1 0 0 1 0
          0 1 0 0 1 0
          0 1 0 0 1 0
          0 1 0 0 0 1
          0 0 1 0 0 1
          0 0 1 0 0 1
          0 1 0 0 1 0
          0 1 0 0 1 0
          0 1 0 0 0 1
          0 0 1 0 0 1
          0 0 1 0 0 1
          0 0 1 0 0 1
          0 0 1 0 0 1
          0 0 1 0 0 1
          0 0 1 0 0 1
          0 0 1 0 0 1
          0 0 1 0 0 1
          0 0 1 0 0 1
          0 0 1 0 0 1
          0 0 1 0 0 1
          0 0 1 0 0 1
          0 0 1 0 0 1
          0 0 1 0 0 1
          0 0 1 0 0 1
          0 0 1 0 0 1
          0 0 1 0 0 1
          0 0 1 0 0 1
          0 0 1 0 0 1
          0 0 1 0 0 1
          0 0 1 0 0 1
          0 0 1 0 0 1
          0 0 1 0 0 1
          0 0 1 0 0 1
          0 0 1 0 0 1
          0 0 1 0 0 1
          0 0 1 0 0 1
          0 0 1 0 0 1
          0 0 1 0 0 1
          0 0 1 0 0 1
          0 0 1 0 0 1
          0 0 1 0 0 1
          0 0 1 0 0 1
          0 0 1 0 0 1
          0 0 1 0 0 1
          -1.1102230246251565e-16 -1.1102230246251565e-16 1 -1.1102230246251565e-16 -1.1102230246251565e-16 1
          -1.1102230246251565e-16 -1.1102230246251565e-16 1 -1.1102230246251565e-16 -1.1102230246251565e-16 1
          -1.1102230246251565e-16 -1.1102230246251565e-16 1
          <InformationKey name="L2_NORM_RANGE" location="vtkDataArray" length="2">
            <Value index="0">
              1
            </Value>
            <Value index="1">
              1
            </Value>
          </InformationKey>
        </DataArray>
        <DataArray type="Float64" Name="base_vector_3" NumberOfComponents="3" format="ascii" RangeMin="0.22975292054736104" RangeMax="1">
          0 0 1 0 0 1
          0 0 1 0 0 1
          0 0 1 0 0 1
          0 0 1 0 0 1
          0 0 1 0 0 1
          0 0 1 0 0 1
          0 0 1 1 0 0
          1 0 0 1 0 0
          1 0 0 1 0 0
          0 0 -1 0 0 -1
          0 0 -1 0 0 -1
          0 0 -1 -1 0 0
          -1 0 0 -1 0 0
          -1 0 0 -1 0 0
          1 0 0 1 0 0
          1 0 0 1 0 0
          0.947213595499958 -0.22360679774997885 0 0.894427190999916 -0.4472135954999577 0
          0.894427190999916 -0.4472135954999577 0 0.894427190999916 -0.4472135954999577 0
          0.894427190999916 -0.4472135954999577 0 1 0 0
          1 0 0 1 0 0
          1 0 0 0.05278640450004202 0.22360679774997885 0
          -0.894427190999916 0.4472135954999577 0 -0.894427190999916 0.4472135954999577 0
          -0.894427190999916 0.4472135954999577 0 -0.894427190999916 0.4472135954999577 0
          0.894427190999916 -0.4472135954999577 0 0.894427190999916 -0.4472135954999577 0
          0.894427190999916 -0.4472135954999577 0 0.894427190999916 -0.4472135954999577 0
          -0.05278640450004202 -0.22360679774997885 0 -1 0 0
          -1 0 0 -1 0 0
          -1 0 0 -0.894427190999916 0.4472135954999577 0
          -0.894427190999916 0.4472135954999577 0 -0.894427190999916 0.4472135954999577 0
          -0.894427190999916 0.4472135954999577 0 -0.947213595499958 0.22360679774997885 0
          -1 0 0 -1 0 0
          -1 0 0 -1 0 0
          1 0 0 1 0 0
          1 0 0 1 0 0
          1 0 0 0.894427190999916 -0.4472135954999577 0
          0.894427190999916 -0.4472135954999577 0 0.894427190999916 -0.4472135954999577 0
          0.894427190999916 -0.4472135954999577 0 0.894427190999916 -0.4472135954999577 0
          0.894427190999916 0.4472135954999577 0 0.894427190999916 0.4472135954999577 0
          0.894427190999916 0.4472135954999577 0 0.894427190999916 0.4472135954999577 0
          0.894427190999916 0.4472135954999577 0 1 0 0
          1 0 0 1 0 0
          1 0 0 1 0 0
          0.894427190999916 -0.4472135954999577 0 0.894427190999916 -0.4472135954999577 0
          0.894427190999916 -0.4472135954999577 0 0.894427190999916 -0.4472135954999577 0
          0.894427190999916 -0.4472135954999577 0 0.894427190999916 0.4472135954999577 0
          0.894427190999916 0.4472135954999577 0 0.894427190999916 0.4472135954999577 0
          0.894427190999916 0.4472135954999577 0 0.894427190999916 0.4472135954999577 0
          0.970142500145332 0.24253562503633297 1.1102230246251565e-16 0.970142500145332 0.24253562503633297 1.1102230246251565e-16
          0.970142500145332 0.24253562503633297 1.1102230246251565e-16 0.970142500145332 0.24253562503633297 1.1102230246251565e-16
          0.970142500145332 0.24253562503633297 1.1102230246251565e-16
          <InformationKey name="L2_NORM_RANGE" location="vtkDataArray" length="2">
            <Value index="0">
              0.22975292055
            </Value>
            <Value index="1">
              1
            </Value>
          </InformationKey>
        </DataArray>
      </PointData>
      <CellData>
        <DataArray type="Float64" Name="cross_section_radius" format="ascii" RangeMin="0.1" RangeMax="0.10000000000000002">
          0.1 0.10000000000000002 0.10000000000000002 0.10000000000000002 0.10000000000000002 0.10000000000000002
          0.1 0.1 0.1 0.1 0.10000000000000002 0.10000000000000002
          0.10000000000000002 0.10000000000000002 0.10000000000000002 0.10000000000000002 0.10000000000000002
        </DataArray>
        <DataArray type="Float64" Name="cell_data_scalar" format="ascii" RangeMin="0" RangeMax="39.333333333333336">
          0 1.3333333333333333 3.3333333333333335 5.333333333333333 7.333333333333333 9.333333333333334
          12.2 16.2 20.2 24.2 27.333333333333332 29.333333333333332
          31.333333333333332 33.333333333333336 35.333333333333336 37.333333333333336 39.333333333333336
        </DataArray>
        <DataArray type="Float64" Name="cell_data_vector" NumberOfComponents="3" format="ascii" RangeMin="2.23606797749979" RangeMax="206.11889772653063">
          0 1 2 4 5 6
          10 11 12 16 17 18
          22 23 24 28 29 30
          36.6 37.6 38.6 48.6 49.6 50.6
          60.6 61.6 62.6 72.6 73.6 74.6
          82 83 84 88 89 90
          94 95 96 100 101 102
          106 107 108 112 113 114
          118 119 120
          <InformationKey name="L2_NORM_RANGE" location="vtkDataArray" length="2">
            <Value index="0">
              2.2360679775
            </Value>
            <Value index="1">
              206.11889773
            </Value>
          </InformationKey>
        </DataArray>
      </CellData>
      <Points>
        <DataArray type="Float64" Name="Points" NumberOfComponents="3" format="ascii" RangeMin="0" RangeMax="6.34428877022476">
          0 0 -2 0.5 0 -2
          1 0 -2 0 0 -1
          0.25 0 -1 0.5 0 -1
          0.75 0 -1 1 0 -1
          0 0 0 0.25 0 0
          0.5 0 0 0.75 0 0
          1 0 0 1 0 0
          1 0.25 0 1 0.5 0
          1 0.75 0 1 1 0
          1 1 0 0.75 1 0
          0.5 1 0 0.25 1 0
          0 1 0 0 1 0
          0 0.75 0 0 0.5 0
          0 0.25 0 0 0 0
          0 0 1 0 0.25 1
          0 0.5 1 0 0.75 1
          0 1 1 0.125 1.25 1
          0.25 1.5 1 0.375 1.75 1
          0.5 2 1 0 0 2
          0 0.25 2 0 0.5 2
          0 0.75 2 0 1 2
          0.125 1.25 2 0.25 1.5 2
          0.375 1.75 2 0.5 2 2
          0.5 2 3 0.375 1.75 3
          0.25 1.5 3 0.125 1.25 3
          0 1 3 0 0.75 3
          0 0.5 3 0 0.25 3
          0 0 3 0.5 2 4
          0.375 1.75 4 0.25 1.5 4
          0.125 1.25 4 0 1 4
          0 0.75 4 0 0.5 4
          0 0.25 4 0 0 4
          0 0 5 0 0.25 5
          0 0.5 5 0 0.75 5
          0 1 5 0 1 5
          0.125 1.25 5 0.25 1.5 5
          0.375 1.75 5 0.5 2 5
          0 1 5 -0.125 1.25 5
          -0.25 1.5 5 -0.375 1.75 5
          -0.5 2 5 0 0 6
          0 0.25 6 0 0.5 6
          0 0.75 6 0 1 6
          0 1 6 0.125 1.25 6
          0.25 1.5 6 0.375 1.75 6
          0.5 2 6 0 1 6
          -0.125 1.25 6 -0.25 1.5 6
          -0.375 1.75 6 -0.5 2 6
          0 0 6 -0.125 0.5 6
          -0.25 1 6 -0.375 1.5 6
          -0.5 2 6
          <InformationKey name="L2_NORM_RANGE" location="vtkDataArray" length="2">
            <Value index="0">
              0
            </Value>
            <Value index="1">
              6.3442887702
            </Value>
          </InformationKey>
        </DataArray>
      </Points>
      <Cells>
        <DataArray type="Int64" Name="connectivity" format="ascii" RangeMin="0" RangeMax="98">
          0 1 2 3 4 5
          6 7 8 9 10 11
          12 13 14 15 16 17
          18 19 20 21 22 23
          24 25 26 27 28 29
          30 31 32 33 34 35
          36 37 38 39 40 41
          42 43 44 45 46 47
          48 49 50 51 52 53
          54 55 56 57 58 59
          60 61 62 63 64 65
          66 67 68 69 70 71
          72 73 74 75 76 77
          78 79 80 81 82 83
          84 85 86 87 88 89
          90 91 92 93 94 95
          96 97 98
        </DataArray>
        <DataArray type="Int64" Name="offsets" format="ascii" RangeMin="3" RangeMax="99">
          3 8 13 18 23 28
          37 46 55 64 69 74
          79 84 89 94 99
        </DataArray>
        <DataArray type="UInt8" Name="types" format="ascii" RangeMin="4" RangeMax="4">
          4 4 4 4 4 4
          4 4 4 4 4 4
          4 4 4 4 4
        </DataArray>
      </Cells>
    </Piece>
  </UnstructuredGrid>
</VTKFile>
