<?xml version="1.0"?>
<VTKFile type="UnstructuredGrid" version="0.1" byte_order="LittleEndian" header_type="UInt32" compressor="vtkZLibDataCompressor">
  <UnstructuredGrid>
    <FieldData>
      <DataArray type="Float64" Name="TIME" NumberOfTuples="1" format="ascii" RangeMin="0.9999999999999999" RangeMax="0.9999999999999999">
        0.9999999999999999
      </DataArray>
    </FieldData>
    <Piece NumberOfPoints="135" NumberOfCells="15">
      <PointData>
        <DataArray type="Float64" Name="displacement" NumberOfComponents="3" format="ascii" RangeMin="0" RangeMax="0.4686609761603424">
          0 0 0 0.001112877599888771 0.0005023326753195539 0.008343901589723026
          -0.0005132853920629653 -0.0002780577944592698 -0.008349947086165705 0 0 0
          0.0003638999995892976 -0.0001334899980509094 0.0020859753974307566 0.0003138789855527893 0.00011503221239372359 0.0008618572808016083
          -0.00031074203525782566 -0.00021783691742553117 -0.002087486771541426 0 0 0
          0.00004345789225413557 -0.00022882762697298755 0.00021546432020040206 0.001112877599888771 0.0005023326753195539 0.008343901589723026
          0.0011479042224487026 0.006832055257790844 0.0464973330320375 -0.002441314226152024 0.005016496012158504 0.012747919819277975
          -0.0005132853920629653 -0.0002780577944592698 -0.008349947086165705 0.0015923924558560343 0.0025950028254779524 0.022054210245163162
          -0.0009038739086732382 0.006023484896644845 0.03130628908174814 -0.0010695146093746286 0.001054874228776253 -0.007250453902887633
          0.0003138789855527893 0.00011503221239372359 0.0008618572808016083 0.00020139210890673853 0.0019072471697247847 0.00890389387143905
          0.0011479042224487026 0.006832055257790844 0.0464973330320375 -0.007556827473871396 0.021759966773925297 0.1343926882708225
          -0.016775686423743563 0.020676955853285616 0.11197269676513878 -0.002441314226152024 0.005016496012158504 0.012747919819277975
          -0.0014815235906786347 0.013218654923519525 0.08337593676802946 -0.012423570821766339 0.021221729269284145 0.12391010283875707
          -0.006914699683805037 0.011569594304168087 0.05227802105154786 -0.0009038739086732382 0.006023484896644845 0.03130628908174814
          -0.004584625930969982 0.012462170545661948 0.06924852978107283 -0.007556827473871396 0.021759966773925297 0.1343926882708225
          -0.030217678960800867 0.042241885180604816 0.2681100818954002 -0.047456178909089305 0.041775885370341895 0.26387031516739345
          -0.016775686423743563 0.020676955853285616 0.11197269676513878 -0.017121161304716494 0.03168978034696733 0.19686494937006369
          -0.03873739227402819 0.04197154266521329 0.2656523515414809 -0.030723203235620635 0.03114393482138543 0.1848355828428281
          -0.012423570821766339 0.021221729269284145 0.12391010283875707 -0.02396104684735488 0.031369180248728805 0.19085628463286997
          -0.030217678960800867 0.042241885180604816 0.2681100818954002 -0.06226000641767486 0.06383342864360775 0.42394915038977155
          -0.08306754897133607 0.06329132554764463 0.4270476773970222 -0.047456178909089305 0.041775885370341895 0.26387031516739345
          -0.04565956560937137 0.05307139627832316 0.3448856331381851 -0.07245796680226274 0.0635341720852237 0.4250838894232031
          -0.06542187397678324 0.05251196358435997 0.3457249834488022 -0.03873739227402819 0.04197154266521329 0.2656523515414809
          -0.05536542596969467 0.05277710908771809 0.34487074074484136 0 0 0
          -0.0005132853920629653 -0.0002780577944592698 -0.008349947086165705 -0.0019464950681920977 -0.0012851169862077567 -0.03105492798473419
          0 0 0 -0.00031074203525782566 -0.00021783691742553117 -0.002087486771541426
          -0.0012922114407230693 -0.0007278149818046792 -0.019064534508802963 -0.0006410902605212391 -0.0000413500724144013 -0.007763731996183547
          0 0 0 -0.0005788685103738595 -0.00014163776678163692 -0.004766133627200741
          -0.0005132853920629653 -0.0002780577944592698 -0.008349947086165705 -0.002441314226152024 0.005016496012158504 0.012747919819277975
          -0.005205876157570262 0.002787860547039305 -0.029463813476332833 -0.0019464950681920977 -0.0012851169862077567 -0.03105492798473419
          -0.0010695146093746286 0.001054874228776253 -0.007250453902887633 -0.0037725904143351896 0.003906238072800449 -0.00792602946390502
          -0.0035801213811594737 -0.0011893602701374068 -0.046184613350000944 -0.0012922114407230693 -0.0007278149818046792 -0.019064534508802963
          -0.002302596254294542 0.00002647481227473122 -0.02581217550197995 -0.002441314226152024 0.005016496012158504 0.012747919819277975
          -0.016775686423743563 0.020676955853285616 0.11197269676513878 -0.02794893604768983 0.019733072064911972 0.09308379335591531
          -0.005205876157570262 0.002787860547039305 -0.029463813476332833 -0.006914699683805037 0.011569594304168087 0.05227802105154786
          -0.021616399694239313 0.0201669642203536 0.10091806271563555 -0.011702550634166397 0.009983139860372416 0.01749610947829695
          -0.0037725904143351896 0.003906238072800449 -0.00792602946390502 -0.009083442150948832 0.010692669606563171 0.03438651335783056
          -0.016775686423743563 0.020676955853285616 0.11197269676513878 -0.047456178909089305 0.041775885370341895 0.26387031516739345
          -0.0688441252626234 0.0412650856338514 0.26801200779032236 -0.02794893604768983 0.019733072064911972 0.09308379335591531
          -0.030723203235620635 0.03114393482138543 0.1848355828428281 -0.05721232714546185 0.04156902809391362 0.2641836436310399
          -0.04873335379241675 0.03062970478221821 0.1817666291340733 -0.021616399694239313 0.0201669642203536 0.10091806271563555
          -0.03858738678035938 0.030926593265645733 0.18105498425740646 -0.047456178909089305 0.041775885370341895 0.26387031516739345
          -0.08306754897133607 0.06329132554764463 0.4270476773970222 -0.10603430705300321 0.06257693265549473 0.43446563097825913
          -0.0688441252626234 0.0412650856338514 0.26801200779032236 -0.06542187397678324 0.05251196358435997 0.3457249834488022
          -0.09421693502241091 0.06300540656101887 0.43009132201433803 -0.0880286448766916 0.05184542484866057 0.3521387386349538
          -0.05721232714546185 0.04156902809391362 0.2641836436310399 -0.07618943761699594 0.052220041570567796 0.34797282737164675
          0 0 0 -0.0019464950681920977 -0.0012851169862077567 -0.03105492798473419
          -0.0034453720216470586 -0.00342543631867292 -0.061213389693934125 0 0 0
          -0.0006410902605212391 -0.0000413500724144013 -0.007763731996183547 -0.0026171955149925843 -0.0021257340257900036 -0.044908691663323286
          -0.0001906866072039884 -0.00010614111174001473 -0.015303347423483531 0 0 0
          -0.000508124041023453 -0.0000013818491313515014 -0.011227172915830821 -0.0019464950681920977 -0.0012851169862077567 -0.03105492798473419
          -0.005205876157570262 0.002787860547039305 -0.029463813476332833 -0.007260227765950507 -0.0005363223319625196 -0.07965884498259873
          -0.0034453720216470586 -0.00342543631867292 -0.061213389693934125 -0.0035801213811594737 -0.0011893602701374068 -0.046184613350000944
          -0.00646160932004584 0.0013955961678075056 -0.05299742204142442 -0.0067924283667542265 -0.0051660939492599945 -0.09643144836306733
          -0.0026171955149925843 -0.0021257340257900036 -0.044908691663323286 -0.005033071561476882 -0.0028383201476017772 -0.06938522008951022
          -0.005205876157570262 0.002787860547039305 -0.029463813476332833 -0.02794893604768983 0.019733072064911972 0.09308379335591531
          -0.04332825285903226 0.018410725500029677 0.08338815590118903 -0.007260227765950507 -0.0005363223319625196 -0.07965884498259873
          -0.011702550634166397 0.009983139860372416 0.01749610947829695 -0.03533298919798939 0.01920456421534318 0.08754784048481934
          -0.015791319502341354 0.008107932746655402 -0.017513127559017055 -0.00646160932004584 0.0013955961678075056 -0.05299742204142442
          -0.01414688859683736 0.009201421946701326 0.0005488742327475682 -0.02794893604768983 0.019733072064911972 0.09308379335591531
          -0.0688441252626234 0.0412650856338514 0.26801200779032236 -0.09630223558101313 0.04004391406621126 0.2832789852914428
          -0.04332825285903226 0.018410725500029677 0.08338815590118903 -0.04873335379241675 0.03062970478221821 0.1817666291340733
          -0.08199346437099887 0.04078355021600179 0.2746216931691528 -0.07509167562294793 0.029385053436951285 0.19350039648801157
          -0.03533298919798939 0.01920456421534318 0.08754784048481934 -0.060966363622907874 0.03015021097226576 0.18617895427641346
          -0.0688441252626234 0.0412650856338514 0.26801200779032236 -0.10603430705300321 0.06257693265549473 0.43446563097825913
          -0.13104389271979985 0.061596341133153806 0.4457314208303188 -0.09630223558101313 0.04004391406621126 0.2832789852914428
          -0.0880286448766916 0.05184542484866057 0.3521387386349538 -0.11836238597987794 0.06208190909242285 0.4398018990098861
          -0.11295471414327979 0.05068258432066146 0.36369797563202966 -0.08199346437099887 0.04078355021600179 0.2746216931691528
          -0.10044767672805724 0.05134673267867843 0.35759102035099205
          <InformationKey name="L2_NORM_RANGE" location="vtkDataArray" length="2">
            <Value index="0">
              0
            </Value>
            <Value index="1">
              0.46866097616
            </Value>
          </InformationKey>
        </DataArray>
        <DataArray type="Float32" Name="surface_normals" NumberOfComponents="3" format="ascii" RangeMin="0.9999998998284827" RangeMax="1.000000120823164">
          -0.0052079014 0 0.9999865 -0.036468245 0.042156186 0.9984453
          0.036483124 0.0580493 0.99764687 0.0052274745 0 0.99998635
          -0.01642501 0.011869585 0.9997947 -0.003370214 0.039150745 0.9992277
          0.014861763 0.016307948 0.9997566 -0.00046722946 0.0015646322 0.99999875
          -0.0021562213 0.0125180725 0.9999194 -0.05513412 0.0420312 0.997594
          -0.13634129 0.08358419 0.98712957 -0.12545092 0.114376254 0.9854847
          0.017928379 0.05798577 0.9981564 -0.091400474 0.072093494 0.99320114
          -0.13132636 0.097300604 0.98655266 -0.060063045 0.09902666 0.99327034
          -0.022079054 0.061000668 0.99789345 -0.07711255 0.08710307 0.9932103
          -0.16768172 0.08275991 0.98236126 -0.27375558 0.05027103 0.9604846
          -0.3265824 0.06153764 0.94316334 -0.17474392 0.11309156 0.9780977
          -0.22412774 0.07317467 0.9718087 -0.29700744 0.06433471 0.95270544
          -0.24709003 0.09816766 0.96400714 -0.17069763 0.09694642 0.9805426
          -0.23421897 0.08694692 0.968288 -0.30242035 0.048887443 0.95192015
          -0.36700457 -0.003997903 0.93021065 -0.40313762 -0.012366396 0.91505593
          -0.3590451 0.059841238 0.93139994 -0.33976567 0.02022751 0.9402926
          -0.3843238 -0.0021976177 0.92319584 -0.37450722 0.019097803 0.9270273
          -0.32706174 0.045630842 0.94390064 -0.35552374 0.019247157 0.93446916
          -0.38088915 -0.004793181 0.9246084 -0.3972083 -0.029218132 0.91726327
          -0.40442187 -0.037949488 0.91378486 -0.4101564 -0.012766383 0.91192585
          -0.3911207 -0.020802736 0.9201044 -0.40105462 -0.032327913 0.9154836
          -0.4046203 -0.029881867 0.91399646 -0.39469844 -0.013588189 0.9187103
          -0.39768636 -0.025930263 0.91715497 0.0052274745 0 0.99998635
          0.03647367 0.06254608 0.9973755 0.13580188 0.07373511 0.98798835
          0.019451868 0 0.9998108 0.02742142 0.017589051 0.9994693
          0.08384223 0.053329013 0.995051 0.07012708 0.020729715 0.9973227
          0.011996499 0.0021280115 0.99992585 0.047780536 0.017045131 0.9987124
          0.017908216 0.062487494 0.99788517 -0.12550321 0.12069218 0.9847245
          -0.12560402 0.12816587 0.9837669 0.11563819 0.07384875 0.99054235
          -0.047739487 0.106159985 0.9932024 -0.122662395 0.12450671 0.9846076
          -0.011160829 0.12195453 0.99247295 0.06476249 0.082941435 0.9944479
          -0.02916502 0.11652156 0.9927599 -0.17480019 0.119390704 0.9773386
          -0.3265032 0.058562867 0.9433801 -0.4160963 0.021652883 0.90906274
          -0.20153199 0.12586662 0.97136116 -0.2572769 0.100380145 0.96110994
          -0.3669377 0.05509756 0.9286125 -0.3019723 0.08824783 0.94922346
          -0.18429913 0.11874353 0.975671 -0.27644423 0.096262634 0.95619667
          -0.35896188 0.05685044 0.9316192 -0.40275055 -0.019359067 0.91510516
          -0.42610484 -0.05654904 0.9029047 -0.4471701 0.019772457 0.89423037
          -0.38799748 0.011178417 0.9215926 -0.41816634 -0.033927597 0.90773666
          -0.42867586 -0.035112813 0.90277576 -0.39885095 0.023971627 0.91670245
          -0.4081669 -0.0136704175 0.9128051 -0.40976685 -0.019761093 0.91197634
          -0.40418515 -0.041558694 0.9137326 -0.4063918 -0.055133123 0.91203403
          -0.42089272 -0.056239504 0.90536535 -0.40884277 -0.034899525 0.91193736
          -0.4061819 -0.047880877 0.9125369 -0.41368183 -0.05553326 0.90872633
          -0.41934443 -0.0404552 0.90692544 -0.41303024 -0.04560423 0.90957487
          0.019451868 0 0.9998108 0.1357864 0.0793175 0.987558
          0.26427227 0.09959331 0.9592921 0.038120896 0 0.9992731
          0.086097054 0.022233872 0.9960386 0.1961943 0.06995094 0.9780668
          0.1422767 0.028025193 0.9894301 0.028154004 0.002802288 0.9995997
          0.112353384 0.022322664 0.9934175 0.11561279 0.079444565 0.99011225
          -0.12565327 0.13416319 0.9829606 -0.15002856 0.16198945 0.975321
          0.23935884 0.100124165 0.965755 0.00068373285 0.13022768 0.99148387
          -0.13553049 0.1518049 0.9790745 0.03813747 0.16410848 0.9857048
          0.17373028 0.10898878 0.9787437 0.018851493 0.15096924 0.98835874
          -0.20156923 0.13182905 0.9705623 -0.41579357 0.014080781 0.90935004
          -0.5501321 -0.0078183245 0.83504105 -0.26120245 0.15769175 0.95231646
          -0.3220085 0.08746908 0.94268745 -0.4794834 0.026716879 0.8771442
          -0.39709657 0.095024094 0.91284436 -0.22814634 0.13585055 0.9641026
          -0.35656098 0.09378334 0.9295531 -0.44685322 0.012204917 0.89452404
          -0.42540166 -0.066010766 0.90259403 -0.4172526 -0.086735524 0.90464216
          -0.5706185 -0.009144403 0.82116437 -0.4425127 -0.048161305 0.895468
          -0.42489874 -0.07766699 0.9019029 -0.48590347 -0.08031003 0.87031484
          -0.5040312 -0.020071832 0.86345214 -0.4635691 -0.06800946 0.8834469
          -0.42019394 -0.06569813 0.90505296 -0.4061557 -0.058388278 0.9119366
          -0.4093271 -0.06473832 0.91008806 -0.39374474 -0.08525329 0.9152579
          -0.4127198 -0.059992954 0.90888023 -0.40683368 -0.060910657 0.9114693
          -0.40427074 -0.066263855 0.91223586 -0.4115869 -0.071683444 0.90854704
          -0.40974262 -0.062416695 0.9100633
          <InformationKey name="L2_NORM_RANGE" location="vtkDataArray" length="2">
            <Value index="0">
              0.99999989983
            </Value>
            <Value index="1">
              1.0000001208
            </Value>
          </InformationKey>
        </DataArray>
      </PointData>
      <CellData>
        <DataArray type="Float64" Name="element_gid" format="ascii" RangeMin="0" RangeMax="14">
          0 1 2 3 4 5
          6 7 8 9 10 11
          12 13 14
        </DataArray>
        <DataArray type="Float64" Name="element_owner" format="ascii" RangeMin="0" RangeMax="0">
          0 0 0 0 0 0
          0 0 0 0 0 0
          0 0 0
        </DataArray>
        <DataArray type="Int32" Name="material_id" format="ascii" RangeMin="1" RangeMax="1">
          1 1 1 1 1 1
          1 1 1 1 1 1
          1 1 1
        </DataArray>
      </CellData>
      <Points>
        <DataArray type="Float64" Name="Points" NumberOfComponents="3" format="ascii" RangeMin="0.03713858378469772" RangeMax="1.1265663168536146">
          -1 -0.5 0 -0.5988871224001112 -0.4994976673246804 0.008343901589723026
          -0.600513285392063 -0.16694472446112596 -0.008349947086165705 -1 -0.16666666666666669 0
          -0.7996361000004107 -0.500133489998051 0.0020859753974307566 -0.5996861210144473 -0.33321830112093964 0.0008618572808016083
          -0.8003107420352579 -0.16688450358409224 -0.002087486771541426 -1 -0.33333333333333337 0
          -0.7999565421077458 -0.33356216096030633 0.00021546432020040206 -0.5988871224001112 -0.4994976673246804 0.008343901589723026
          -0.19885209577755128 -0.49316794474220915 0.0464973330320375 -0.202441314226152 -0.16165017065450818 0.012747919819277975
          -0.600513285392063 -0.16694472446112596 -0.008349947086165705 -0.39840760754414395 -0.497404997174522 0.022054210245163162
          -0.20090387390867318 -0.32730984843668853 0.03130628908174814 -0.40106951460937457 -0.1656117924378904 -0.007250453902887633
          -0.5996861210144473 -0.33321830112093964 0.0008618572808016083 -0.3997986078910932 -0.3314260861636086 0.00890389387143905
          -0.19885209577755128 -0.49316794474220915 0.0464973330320375 0.19244317252612878 -0.4782400332260747 0.1343926882708225
          0.18322431357625663 -0.14598971081338108 0.11197269676513878 -0.202441314226152 -0.16165017065450818 0.012747919819277975
          -0.0014815235906786139 -0.4867813450764806 0.08337593676802946 0.18757642917823383 -0.31211160406404925 0.12391010283875707
          -0.0069146996838050055 -0.1550970723624986 0.05227802105154786 -0.20090387390867318 -0.32730984843668853 0.03130628908174814
          -0.004584625930969943 -0.32087116278767136 0.06924852978107283 0.19244317252612878 -0.4782400332260747 0.1343926882708225
          0.5697823210391992 -0.4577581148193952 0.2681100818954002 0.5525438210909108 -0.12489078129632479 0.26387031516739345
          0.18322431357625663 -0.14598971081338108 0.11197269676513878 0.38287883869528366 -0.46831021965303266 0.19686494937006369
          0.561262607725972 -0.29136179066812007 0.2656523515414809 0.36927679676437947 -0.13552273184528124 0.1848355828428281
          0.18757642917823383 -0.31211160406404925 0.12391010283875707 0.37603895315264524 -0.30196415308460456 0.19085628463286997
          0.5697823210391992 -0.4577581148193952 0.2681100818954002 0.9377399935823252 -0.43616657135639225 0.42394915038977155
          0.9169324510286639 -0.10337534111902205 0.4270476773970222 0.5525438210909108 -0.12489078129632479 0.26387031516739345
          0.7543404343906287 -0.44692860372167686 0.3448856331381851 0.9275420331977373 -0.26979916124810965 0.4250838894232031
          0.7345781260232168 -0.11415470308230671 0.3457249834488022 0.561262607725972 -0.29136179066812007 0.2656523515414809
          0.7446345740303053 -0.28055622424561527 0.34487074074484136 -1 -0.16666666666666669 0
          -0.600513285392063 -0.16694472446112596 -0.008349947086165705 -0.6019464950681921 0.16538154968045887 -0.03105492798473419
          -1 0.16666666666666663 0 -0.8003107420352579 -0.16688450358409224 -0.002087486771541426
          -0.6012922114407232 -0.0007278149818046862 -0.019064534508802963 -0.8006410902605213 0.16662531659425223 -0.007763731996183547
          -1.0000000000000002 0 0 -0.8005788685103739 -0.0001416377667816404 -0.004766133627200741
          -0.600513285392063 -0.16694472446112596 -0.008349947086165705 -0.202441314226152 -0.16165017065450818 0.012747919819277975
          -0.2052058761575702 0.16945452721370594 -0.029463813476332833 -0.6019464950681921 0.16538154968045887 -0.03105492798473419
          -0.40106951460937457 -0.1656117924378904 -0.007250453902887633 -0.20377259041433518 0.0039062380728004456 -0.00792602946390502
          -0.4035801213811594 0.16547730639652922 -0.046184613350000944 -0.6012922114407232 -0.0007278149818046862 -0.019064534508802963
          -0.40230259625429443 0.00002647481227474683 -0.02581217550197995 -0.202441314226152 -0.16165017065450818 0.012747919819277975
          0.18322431357625663 -0.14598971081338108 0.11197269676513878 0.17205106395231035 0.1863997387315786 0.09308379335591531
          -0.2052058761575702 0.16945452721370594 -0.029463813476332833 -0.0069146996838050055 -0.1550970723624986 0.05227802105154786
          0.1783836003057609 0.020166964220353602 0.10091806271563555 -0.011702550634166359 0.17664980652703904 0.01749610947829695
          -0.20377259041433518 0.0039062380728004456 -0.00792602946390502 -0.009083442150948792 0.01069266960656318 0.03438651335783056
          0.18322431357625663 -0.14598971081338108 0.11197269676513878 0.5525438210909108 -0.12489078129632479 0.26387031516739345
          0.5311558747373767 0.20793175230051802 0.26801200779032236 0.17205106395231035 0.1863997387315786 0.09308379335591531
          0.36927679676437947 -0.13552273184528124 0.1848355828428281 0.5427876728545383 0.041569028093913614 0.2641836436310399
          0.3512666462075833 0.19729637144888484 0.1817666291340733 0.1783836003057609 0.020166964220353602 0.10091806271563555
          0.36141261321964074 0.030926593265645747 0.18105498425740646 0.5525438210909108 -0.12489078129632479 0.26387031516739345
          0.9169324510286639 -0.10337534111902205 0.4270476773970222 0.8939656929469968 0.22924359932216137 0.43446563097825913
          0.5311558747373767 0.20793175230051802 0.26801200779032236 0.7345781260232168 -0.11415470308230671 0.3457249834488022
          0.9057830649775893 0.06300540656101887 0.43009132201433803 0.7119713551233084 0.2185120915153272 0.3521387386349538
          0.5427876728545383 0.041569028093913614 0.2641836436310399 0.723810562383004 0.052220041570567796 0.34797282737164675
          -1 0.16666666666666663 0 -0.6019464950681921 0.16538154968045887 -0.03105492798473419
          -0.603445372021647 0.4965745636813271 -0.061213389693934125 -1 0.5 0
          -0.8006410902605213 0.16662531659425223 -0.007763731996183547 -0.6026171955149926 0.33120759930754334 -0.044908691663323286
          -0.800190686607204 0.49989385888826 -0.015303347423483531 -1 0.3333333333333333 0
          -0.8005081240410234 0.33333195148420197 -0.011227172915830821 -0.6019464950681921 0.16538154968045887 -0.03105492798473419
          -0.2052058761575702 0.16945452721370594 -0.029463813476332833 -0.2072602277659505 0.49946367766803745 -0.07965884498259873
          -0.603445372021647 0.4965745636813271 -0.061213389693934125 -0.4035801213811594 0.16547730639652922 -0.046184613350000944
          -0.20646160932004576 0.3347289295011408 -0.05299742204142442 -0.40679242836675417 0.49483390605074 -0.09643144836306733
          -0.6026171955149926 0.33120759930754334 -0.044908691663323286 -0.4050330715614768 0.3304950131857315 -0.06938522008951022
          -0.2052058761575702 0.16945452721370594 -0.029463813476332833 0.17205106395231035 0.1863997387315786 0.09308379335591531
          0.15667174714096793 0.5184107255000296 0.08338815590118903 -0.2072602277659505 0.49946367766803745 -0.07965884498259873
          -0.011702550634166359 0.17664980652703904 0.01749610947829695 0.1646670108020108 0.3525378975486765 0.08754784048481934
          -0.015791319502341333 0.5081079327466556 -0.017513127559017055 -0.20646160932004576 0.3347289295011408 -0.05299742204142442
          -0.014146888596837324 0.3425347552800346 0.0005488742327475682 0.17205106395231035 0.1863997387315786 0.09308379335591531
          0.5311558747373767 0.20793175230051802 0.26801200779032236 0.503697764418987 0.5400439140662112 0.2832789852914428
          0.15667174714096793 0.5184107255000296 0.08338815590118903 0.3512666462075833 0.19729637144888484 0.1817666291340733
          0.5180065356290013 0.37411688354933514 0.2746216931691528 0.3249083243770522 0.5293850534369513 0.19350039648801157
          0.1646670108020108 0.3525378975486765 0.08754784048481934 0.3390336363770923 0.36348354430559904 0.18617895427641346
          0.5311558747373767 0.20793175230051802 0.26801200779032236 0.8939656929469968 0.22924359932216137 0.43446563097825913
          0.8689561072802001 0.5615963411331538 0.4457314208303188 0.503697764418987 0.5400439140662112 0.2832789852914428
          0.7119713551233084 0.2185120915153272 0.3521387386349538 0.8816376140201221 0.39541524242575615 0.4398018990098861
          0.6870452858567202 0.5506825843206614 0.36369797563202966 0.5180065356290013 0.37411688354933514 0.2746216931691528
          0.6995523232719428 0.38468006601201177 0.35759102035099205
          <InformationKey name="L2_NORM_RANGE" location="vtkDataArray" length="2">
            <Value index="0">
              0.037138583785
            </Value>
            <Value index="1">
              1.1265663169
            </Value>
          </InformationKey>
        </DataArray>
      </Points>
      <Cells>
        <DataArray type="Int32" Name="connectivity" format="ascii" RangeMin="0" RangeMax="134">
          0 1 2 3 4 5
          6 7 8 9 10 11
          12 13 14 15 16 17
          18 19 20 21 22 23
          24 25 26 27 28 29
          30 31 32 33 34 35
          36 37 38 39 40 41
          42 43 44 45 46 47
          48 49 50 51 52 53
          54 55 56 57 58 59
          60 61 62 63 64 65
          66 67 68 69 70 71
          72 73 74 75 76 77
          78 79 80 81 82 83
          84 85 86 87 88 89
          90 91 92 93 94 95
          96 97 98 99 100 101
          102 103 104 105 106 107
          108 109 110 111 112 113
          114 115 116 117 118 119
          120 121 122 123 124 125
          126 127 128 129 130 131
          132 133 134
        </DataArray>
        <DataArray type="Int32" Name="offsets" format="ascii" RangeMin="9" RangeMax="135">
          9 18 27 36 45 54
          63 72 81 90 99 108
          117 126 135
        </DataArray>
        <DataArray type="UInt8" Name="types" format="ascii" RangeMin="28" RangeMax="28">
          28 28 28 28 28 28
          28 28 28 28 28 28
          28 28 28
        </DataArray>
      </Cells>
    </Piece>
  </UnstructuredGrid>
</VTKFile>
